<?xml version="1.0" encoding="ISO-8859-1"?>
<modeling>
 <generator>
  <i name="program" type="string">vasp </i>
  <i name="version" type="string">5.4.1  </i>
  <i name="subversion" type="string">24Jun15 (build Nov 20 2020 10:29:34) complex                          parallel </i>
  <i name="platform" type="string">IFC91_ompi </i>
  <i name="date" type="string">2021 09 09 </i>
  <i name="time" type="string">15:20:32 </i>
 </generator>
 <incar>
  <i type="string" name="PREC">a</i>
  <i type="string" name="ALGO"> Normal</i>
  <i type="int" name="ISPIN">     1</i>
  <i type="int" name="ICHARG">     2</i>
  <i type="int" name="NELM">   250</i>
  <i type="int" name="NELMDL">    -5</i>
  <i type="int" name="NELMIN">     6</i>
  <i type="int" name="IBRION">     2</i>
  <i name="EDIFF">      0.00001000</i>
  <i name="EDIFFG">     -0.01000000</i>
  <i type="int" name="NSW">   200</i>
  <i type="int" name="ISIF">     2</i>
  <i name="ENCUT">    520.00000000</i>
  <i name="POTIM">      0.30000000</i>
  <i type="logical" name="LREAL"> F  </i>
  <i type="int" name="ISMEAR">     0</i>
  <i name="SIGMA">      0.02000000</i>
  <i type="logical" name="LWAVE"> F  </i>
  <i type="logical" name="LCHARG"> F  </i>
  <i type="logical" name="LAECHG"> F  </i>
  <v type="int" name="KPOINT_BSE">    -1     0     0     0</v>
  <i type="int" name="NELM">   250</i>
 </incar>
 <kpoints>
  <generation param="Gamma">
   <v type="int" name="divisions">      21       15        1 </v>
   <v name="usershift">      0.00000000       0.00000000       0.00000000 </v>
   <v name="genvec1">      0.04761905       0.00000000       0.00000000 </v>
   <v name="genvec2">      0.00000000       0.06666667       0.00000000 </v>
   <v name="genvec3">      0.00000000       0.00000000       1.00000000 </v>
   <v name="shift">      0.00000000       0.00000000       0.00000000 </v>
  </generation>
  <varray name="kpointlist" >
   <v>       0.00000000       0.00000000       0.00000000 </v>
   <v>       0.04761905       0.00000000       0.00000000 </v>
   <v>       0.09523810       0.00000000       0.00000000 </v>
   <v>       0.14285714       0.00000000       0.00000000 </v>
   <v>       0.19047619       0.00000000       0.00000000 </v>
   <v>       0.23809524       0.00000000       0.00000000 </v>
   <v>       0.28571429       0.00000000       0.00000000 </v>
   <v>       0.33333333       0.00000000       0.00000000 </v>
   <v>       0.38095238       0.00000000       0.00000000 </v>
   <v>       0.42857143       0.00000000       0.00000000 </v>
   <v>       0.47619048       0.00000000       0.00000000 </v>
   <v>       0.00000000       0.06666667       0.00000000 </v>
   <v>       0.04761905       0.06666667       0.00000000 </v>
   <v>       0.09523810       0.06666667       0.00000000 </v>
   <v>       0.14285714       0.06666667       0.00000000 </v>
   <v>       0.19047619       0.06666667       0.00000000 </v>
   <v>       0.23809524       0.06666667       0.00000000 </v>
   <v>       0.28571429       0.06666667       0.00000000 </v>
   <v>       0.33333333       0.06666667       0.00000000 </v>
   <v>       0.38095238       0.06666667       0.00000000 </v>
   <v>       0.42857143       0.06666667       0.00000000 </v>
   <v>       0.47619048       0.06666667       0.00000000 </v>
   <v>      -0.47619048       0.06666667       0.00000000 </v>
   <v>      -0.42857143       0.06666667       0.00000000 </v>
   <v>      -0.38095238       0.06666667       0.00000000 </v>
   <v>      -0.33333333       0.06666667       0.00000000 </v>
   <v>      -0.28571429       0.06666667       0.00000000 </v>
   <v>      -0.23809524       0.06666667       0.00000000 </v>
   <v>      -0.19047619       0.06666667       0.00000000 </v>
   <v>      -0.14285714       0.06666667       0.00000000 </v>
   <v>      -0.09523810       0.06666667       0.00000000 </v>
   <v>      -0.04761905       0.06666667       0.00000000 </v>
   <v>       0.00000000       0.13333333       0.00000000 </v>
   <v>       0.04761905       0.13333333       0.00000000 </v>
   <v>       0.09523810       0.13333333       0.00000000 </v>
   <v>       0.14285714       0.13333333       0.00000000 </v>
   <v>       0.19047619       0.13333333       0.00000000 </v>
   <v>       0.23809524       0.13333333       0.00000000 </v>
   <v>       0.28571429       0.13333333       0.00000000 </v>
   <v>       0.33333333       0.13333333       0.00000000 </v>
   <v>       0.38095238       0.13333333       0.00000000 </v>
   <v>       0.42857143       0.13333333       0.00000000 </v>
   <v>       0.47619048       0.13333333       0.00000000 </v>
   <v>      -0.47619048       0.13333333       0.00000000 </v>
   <v>      -0.42857143       0.13333333       0.00000000 </v>
   <v>      -0.38095238       0.13333333       0.00000000 </v>
   <v>      -0.33333333       0.13333333       0.00000000 </v>
   <v>      -0.28571429       0.13333333       0.00000000 </v>
   <v>      -0.23809524       0.13333333       0.00000000 </v>
   <v>      -0.19047619       0.13333333       0.00000000 </v>
   <v>      -0.14285714       0.13333333       0.00000000 </v>
   <v>      -0.09523810       0.13333333       0.00000000 </v>
   <v>      -0.04761905       0.13333333       0.00000000 </v>
   <v>       0.00000000       0.20000000       0.00000000 </v>
   <v>       0.04761905       0.20000000       0.00000000 </v>
   <v>       0.09523810       0.20000000       0.00000000 </v>
   <v>       0.14285714       0.20000000       0.00000000 </v>
   <v>       0.19047619       0.20000000       0.00000000 </v>
   <v>       0.23809524       0.20000000       0.00000000 </v>
   <v>       0.28571429       0.20000000       0.00000000 </v>
   <v>       0.33333333       0.20000000       0.00000000 </v>
   <v>       0.38095238       0.20000000       0.00000000 </v>
   <v>       0.42857143       0.20000000       0.00000000 </v>
   <v>       0.47619048       0.20000000       0.00000000 </v>
   <v>      -0.47619048       0.20000000       0.00000000 </v>
   <v>      -0.42857143       0.20000000       0.00000000 </v>
   <v>      -0.38095238       0.20000000       0.00000000 </v>
   <v>      -0.33333333       0.20000000       0.00000000 </v>
   <v>      -0.28571429       0.20000000       0.00000000 </v>
   <v>      -0.23809524       0.20000000       0.00000000 </v>
   <v>      -0.19047619       0.20000000       0.00000000 </v>
   <v>      -0.14285714       0.20000000       0.00000000 </v>
   <v>      -0.09523810       0.20000000       0.00000000 </v>
   <v>      -0.04761905       0.20000000       0.00000000 </v>
   <v>       0.00000000       0.26666667       0.00000000 </v>
   <v>       0.04761905       0.26666667       0.00000000 </v>
   <v>       0.09523810       0.26666667       0.00000000 </v>
   <v>       0.14285714       0.26666667       0.00000000 </v>
   <v>       0.19047619       0.26666667       0.00000000 </v>
   <v>       0.23809524       0.26666667       0.00000000 </v>
   <v>       0.28571429       0.26666667       0.00000000 </v>
   <v>       0.33333333       0.26666667       0.00000000 </v>
   <v>       0.38095238       0.26666667       0.00000000 </v>
   <v>       0.42857143       0.26666667       0.00000000 </v>
   <v>       0.47619048       0.26666667       0.00000000 </v>
   <v>      -0.47619048       0.26666667       0.00000000 </v>
   <v>      -0.42857143       0.26666667       0.00000000 </v>
   <v>      -0.38095238       0.26666667       0.00000000 </v>
   <v>      -0.33333333       0.26666667       0.00000000 </v>
   <v>      -0.28571429       0.26666667       0.00000000 </v>
   <v>      -0.23809524       0.26666667       0.00000000 </v>
   <v>      -0.19047619       0.26666667       0.00000000 </v>
   <v>      -0.14285714       0.26666667       0.00000000 </v>
   <v>      -0.09523810       0.26666667       0.00000000 </v>
   <v>      -0.04761905       0.26666667       0.00000000 </v>
   <v>       0.00000000       0.33333333       0.00000000 </v>
   <v>       0.04761905       0.33333333       0.00000000 </v>
   <v>       0.09523810       0.33333333       0.00000000 </v>
   <v>       0.14285714       0.33333333       0.00000000 </v>
   <v>       0.19047619       0.33333333       0.00000000 </v>
   <v>       0.23809524       0.33333333       0.00000000 </v>
   <v>       0.28571429       0.33333333       0.00000000 </v>
   <v>       0.33333333       0.33333333       0.00000000 </v>
   <v>       0.38095238       0.33333333       0.00000000 </v>
   <v>       0.42857143       0.33333333       0.00000000 </v>
   <v>       0.47619048       0.33333333       0.00000000 </v>
   <v>      -0.47619048       0.33333333       0.00000000 </v>
   <v>      -0.42857143       0.33333333       0.00000000 </v>
   <v>      -0.38095238       0.33333333       0.00000000 </v>
   <v>      -0.33333333       0.33333333       0.00000000 </v>
   <v>      -0.28571429       0.33333333       0.00000000 </v>
   <v>      -0.23809524       0.33333333       0.00000000 </v>
   <v>      -0.19047619       0.33333333       0.00000000 </v>
   <v>      -0.14285714       0.33333333       0.00000000 </v>
   <v>      -0.09523810       0.33333333       0.00000000 </v>
   <v>      -0.04761905       0.33333333       0.00000000 </v>
   <v>       0.00000000       0.40000000       0.00000000 </v>
   <v>       0.04761905       0.40000000       0.00000000 </v>
   <v>       0.09523810       0.40000000       0.00000000 </v>
   <v>       0.14285714       0.40000000       0.00000000 </v>
   <v>       0.19047619       0.40000000       0.00000000 </v>
   <v>       0.23809524       0.40000000       0.00000000 </v>
   <v>       0.28571429       0.40000000       0.00000000 </v>
   <v>       0.33333333       0.40000000       0.00000000 </v>
   <v>       0.38095238       0.40000000       0.00000000 </v>
   <v>       0.42857143       0.40000000       0.00000000 </v>
   <v>       0.47619048       0.40000000       0.00000000 </v>
   <v>      -0.47619048       0.40000000       0.00000000 </v>
   <v>      -0.42857143       0.40000000       0.00000000 </v>
   <v>      -0.38095238       0.40000000       0.00000000 </v>
   <v>      -0.33333333       0.40000000       0.00000000 </v>
   <v>      -0.28571429       0.40000000       0.00000000 </v>
   <v>      -0.23809524       0.40000000       0.00000000 </v>
   <v>      -0.19047619       0.40000000       0.00000000 </v>
   <v>      -0.14285714       0.40000000       0.00000000 </v>
   <v>      -0.09523810       0.40000000       0.00000000 </v>
   <v>      -0.04761905       0.40000000       0.00000000 </v>
   <v>       0.00000000       0.46666667       0.00000000 </v>
   <v>       0.04761905       0.46666667       0.00000000 </v>
   <v>       0.09523810       0.46666667       0.00000000 </v>
   <v>       0.14285714       0.46666667       0.00000000 </v>
   <v>       0.19047619       0.46666667       0.00000000 </v>
   <v>       0.23809524       0.46666667       0.00000000 </v>
   <v>       0.28571429       0.46666667       0.00000000 </v>
   <v>       0.33333333       0.46666667       0.00000000 </v>
   <v>       0.38095238       0.46666667       0.00000000 </v>
   <v>       0.42857143       0.46666667       0.00000000 </v>
   <v>       0.47619048       0.46666667       0.00000000 </v>
   <v>      -0.47619048       0.46666667       0.00000000 </v>
   <v>      -0.42857143       0.46666667       0.00000000 </v>
   <v>      -0.38095238       0.46666667       0.00000000 </v>
   <v>      -0.33333333       0.46666667       0.00000000 </v>
   <v>      -0.28571429       0.46666667       0.00000000 </v>
   <v>      -0.23809524       0.46666667       0.00000000 </v>
   <v>      -0.19047619       0.46666667       0.00000000 </v>
   <v>      -0.14285714       0.46666667       0.00000000 </v>
   <v>      -0.09523810       0.46666667       0.00000000 </v>
   <v>      -0.04761905       0.46666667       0.00000000 </v>
  </varray>
  <varray name="weights" >
   <v>       0.00317460 </v>
   <v>       0.00634921 </v>
   <v>       0.00634921 </v>
   <v>       0.00634921 </v>
   <v>       0.00634921 </v>
   <v>       0.00634921 </v>
   <v>       0.00634921 </v>
   <v>       0.00634921 </v>
   <v>       0.00634921 </v>
   <v>       0.00634921 </v>
   <v>       0.00634921 </v>
   <v>       0.00634921 </v>
   <v>       0.00634921 </v>
   <v>       0.00634921 </v>
   <v>       0.00634921 </v>
   <v>       0.00634921 </v>
   <v>       0.00634921 </v>
   <v>       0.00634921 </v>
   <v>       0.00634921 </v>
   <v>       0.00634921 </v>
   <v>       0.00634921 </v>
   <v>       0.00634921 </v>
   <v>       0.00634921 </v>
   <v>       0.00634921 </v>
   <v>       0.00634921 </v>
   <v>       0.00634921 </v>
   <v>       0.00634921 </v>
   <v>       0.00634921 </v>
   <v>       0.00634921 </v>
   <v>       0.00634921 </v>
   <v>       0.00634921 </v>
   <v>       0.00634921 </v>
   <v>       0.00634921 </v>
   <v>       0.00634921 </v>
   <v>       0.00634921 </v>
   <v>       0.00634921 </v>
   <v>       0.00634921 </v>
   <v>       0.00634921 </v>
   <v>       0.00634921 </v>
   <v>       0.00634921 </v>
   <v>       0.00634921 </v>
   <v>       0.00634921 </v>
   <v>       0.00634921 </v>
   <v>       0.00634921 </v>
   <v>       0.00634921 </v>
   <v>       0.00634921 </v>
   <v>       0.00634921 </v>
   <v>       0.00634921 </v>
   <v>       0.00634921 </v>
   <v>       0.00634921 </v>
   <v>       0.00634921 </v>
   <v>       0.00634921 </v>
   <v>       0.00634921 </v>
   <v>       0.00634921 </v>
   <v>       0.00634921 </v>
   <v>       0.00634921 </v>
   <v>       0.00634921 </v>
   <v>       0.00634921 </v>
   <v>       0.00634921 </v>
   <v>       0.00634921 </v>
   <v>       0.00634921 </v>
   <v>       0.00634921 </v>
   <v>       0.00634921 </v>
   <v>       0.00634921 </v>
   <v>       0.00634921 </v>
   <v>       0.00634921 </v>
   <v>       0.00634921 </v>
   <v>       0.00634921 </v>
   <v>       0.00634921 </v>
   <v>       0.00634921 </v>
   <v>       0.00634921 </v>
   <v>       0.00634921 </v>
   <v>       0.00634921 </v>
   <v>       0.00634921 </v>
   <v>       0.00634921 </v>
   <v>       0.00634921 </v>
   <v>       0.00634921 </v>
   <v>       0.00634921 </v>
   <v>       0.00634921 </v>
   <v>       0.00634921 </v>
   <v>       0.00634921 </v>
   <v>       0.00634921 </v>
   <v>       0.00634921 </v>
   <v>       0.00634921 </v>
   <v>       0.00634921 </v>
   <v>       0.00634921 </v>
   <v>       0.00634921 </v>
   <v>       0.00634921 </v>
   <v>       0.00634921 </v>
   <v>       0.00634921 </v>
   <v>       0.00634921 </v>
   <v>       0.00634921 </v>
   <v>       0.00634921 </v>
   <v>       0.00634921 </v>
   <v>       0.00634921 </v>
   <v>       0.00634921 </v>
   <v>       0.00634921 </v>
   <v>       0.00634921 </v>
   <v>       0.00634921 </v>
   <v>       0.00634921 </v>
   <v>       0.00634921 </v>
   <v>       0.00634921 </v>
   <v>       0.00634921 </v>
   <v>       0.00634921 </v>
   <v>       0.00634921 </v>
   <v>       0.00634921 </v>
   <v>       0.00634921 </v>
   <v>       0.00634921 </v>
   <v>       0.00634921 </v>
   <v>       0.00634921 </v>
   <v>       0.00634921 </v>
   <v>       0.00634921 </v>
   <v>       0.00634921 </v>
   <v>       0.00634921 </v>
   <v>       0.00634921 </v>
   <v>       0.00634921 </v>
   <v>       0.00634921 </v>
   <v>       0.00634921 </v>
   <v>       0.00634921 </v>
   <v>       0.00634921 </v>
   <v>       0.00634921 </v>
   <v>       0.00634921 </v>
   <v>       0.00634921 </v>
   <v>       0.00634921 </v>
   <v>       0.00634921 </v>
   <v>       0.00634921 </v>
   <v>       0.00634921 </v>
   <v>       0.00634921 </v>
   <v>       0.00634921 </v>
   <v>       0.00634921 </v>
   <v>       0.00634921 </v>
   <v>       0.00634921 </v>
   <v>       0.00634921 </v>
   <v>       0.00634921 </v>
   <v>       0.00634921 </v>
   <v>       0.00634921 </v>
   <v>       0.00634921 </v>
   <v>       0.00634921 </v>
   <v>       0.00634921 </v>
   <v>       0.00634921 </v>
   <v>       0.00634921 </v>
   <v>       0.00634921 </v>
   <v>       0.00634921 </v>
   <v>       0.00634921 </v>
   <v>       0.00634921 </v>
   <v>       0.00634921 </v>
   <v>       0.00634921 </v>
   <v>       0.00634921 </v>
   <v>       0.00634921 </v>
   <v>       0.00634921 </v>
   <v>       0.00634921 </v>
   <v>       0.00634921 </v>
   <v>       0.00634921 </v>
   <v>       0.00634921 </v>
   <v>       0.00634921 </v>
   <v>       0.00634921 </v>
   <v>       0.00634921 </v>
   <v>       0.00634921 </v>
  </varray>
 </kpoints>
 <parameters>
  <separator name="general" >
   <i type="string" name="SYSTEM">unknown system</i>
   <i type="logical" name="LCOMPAT"> F  </i>
  </separator>
  <separator name="electronic" >
   <i type="string" name="PREC">a</i>
   <i name="ENMAX">    520.00000000</i>
   <i name="ENAUG">    342.92400000</i>
   <i name="EDIFF">      0.00001000</i>
   <i type="int" name="IALGO">    38</i>
   <i type="int" name="IWAVPR">    11</i>
   <i type="int" name="NBANDS">    16</i>
   <i name="NELECT">     20.00000000</i>
   <i type="int" name="TURBO">     0</i>
   <i type="int" name="IRESTART">     0</i>
   <i type="int" name="NREBOOT">     0</i>
   <i type="int" name="NMIN">     0</i>
   <i name="EREF">      0.00000000</i>
   <separator name="electronic smearing" >
    <i type="int" name="ISMEAR">     0</i>
    <i name="SIGMA">      0.02000000</i>
    <i name="KSPACING">      0.50000000</i>
    <i type="logical" name="KGAMMA"> T  </i>
   </separator>
   <separator name="electronic projectors" >
    <i type="logical" name="LREAL"> F  </i>
    <v name="ROPT">      0.00000000</v>
    <i type="int" name="LMAXPAW">  -100</i>
    <i type="int" name="LMAXMIX">     2</i>
    <i type="logical" name="NLSPLINE"> F  </i>
   </separator>
   <separator name="electronic startup" >
    <i type="int" name="ISTART">     0</i>
    <i type="int" name="ICHARG">     2</i>
    <i type="int" name="INIWAV">     1</i>
   </separator>
   <separator name="electronic spin" >
    <i type="int" name="ISPIN">     1</i>
    <i type="logical" name="LNONCOLLINEAR"> F  </i>
    <v name="MAGMOM">      1.00000000      1.00000000      1.00000000      1.00000000</v>
    <i name="NUPDOWN">     -1.00000000</i>
    <i type="logical" name="LSORBIT"> F  </i>
    <v name="SAXIS">      0.00000000      0.00000000      1.00000000</v>
    <i type="logical" name="LSPIRAL"> F  </i>
    <v name="QSPIRAL">      0.00000000      0.00000000      0.00000000</v>
    <i type="logical" name="LZEROZ"> F  </i>
   </separator>
   <separator name="electronic exchange-correlation" >
    <i type="logical" name="LASPH"> F  </i>
    <i type="logical" name="LMETAGGA"> F  </i>
   </separator>
   <separator name="electronic convergence" >
    <i type="int" name="NELM">   250</i>
    <i type="int" name="NELMDL">    -5</i>
    <i type="int" name="NELMIN">     6</i>
    <i name="ENINI">    520.00000000</i>
    <separator name="electronic convergence detail" >
     <i type="logical" name="LDIAG"> T  </i>
     <i type="logical" name="LSUBROT"> F  </i>
     <i name="WEIMIN">      0.00100000</i>
     <i name="EBREAK">      0.00000016</i>
     <i name="DEPER">      0.30000000</i>
     <i type="int" name="NRMM">     4</i>
     <i name="TIME">      0.40000000</i>
    </separator>
   </separator>
   <separator name="electronic mixer" >
    <i name="AMIX">      0.40000000</i>
    <i name="BMIX">      1.00000000</i>
    <i name="AMIN">      0.10000000</i>
    <i name="AMIX_MAG">      1.60000000</i>
    <i name="BMIX_MAG">      1.00000000</i>
    <separator name="electronic mixer details" >
     <i type="int" name="IMIX">     4</i>
     <i type="logical" name="MIXFIRST"> F  </i>
     <i type="int" name="MAXMIX">   -45</i>
     <i name="WC">    100.00000000</i>
     <i type="int" name="INIMIX">     1</i>
     <i type="int" name="MIXPRE">     1</i>
     <i type="int" name="MREMOVE">     5</i>
    </separator>
   </separator>
   <separator name="electronic dipolcorrection" >
    <i type="logical" name="LDIPOL"> F  </i>
    <i type="logical" name="LMONO"> F  </i>
    <i type="int" name="IDIPOL">     0</i>
    <i name="EPSILON">      1.00000000</i>
    <v name="DIPOL">   -100.00000000   -100.00000000   -100.00000000</v>
    <i name="EFIELD">      0.00000000</i>
   </separator>
  </separator>
  <separator name="grids" >
   <i type="int" name="NGX">    28</i>
   <i type="int" name="NGY">    36</i>
   <i type="int" name="NGZ">   150</i>
   <i type="int" name="NGXF">    56</i>
   <i type="int" name="NGYF">    72</i>
   <i type="int" name="NGZF">   300</i>
   <i type="logical" name="ADDGRID"> F  </i>
  </separator>
  <separator name="ionic" >
   <i type="int" name="NSW">   200</i>
   <i type="int" name="IBRION">     2</i>
   <i type="int" name="ISIF">     2</i>
   <i name="PSTRESS">      0.00000000</i>
   <i name="EDIFFG">     -0.01000000</i>
   <i type="int" name="NFREE">     1</i>
   <i name="POTIM">      0.30000000</i>
   <i name="SMASS">     -3.00000000</i>
   <i name="SCALEE">      1.00000000</i>
  </separator>
  <separator name="ionic md" >
   <i name="TEBEG">      0.00010000</i>
   <i name="TEEND">      0.00010000</i>
   <i type="int" name="NBLOCK">     1</i>
   <i type="int" name="KBLOCK">   200</i>
   <i type="int" name="NPACO">   256</i>
   <i name="APACO">     16.00000000</i>
  </separator>
  <separator name="symmetry" >
   <i type="int" name="ISYM">     2</i>
   <i name="SYMPREC">      0.00001000</i>
  </separator>
  <separator name="dos" >
   <i type="logical" name="LORBIT"> F  </i>
   <v name="RWIGS">     -1.00000000</v>
   <i type="int" name="NEDOS">   301</i>
   <i name="EMIN">     10.00000000</i>
   <i name="EMAX">    -10.00000000</i>
   <i name="EFERMI">      0.00000000</i>
  </separator>
  <separator name="writing" >
   <i type="int" name="NWRITE">     2</i>
   <i type="logical" name="LWAVE"> F  </i>
   <i type="logical" name="LCHARG"> F  </i>
   <i type="logical" name="LPARD"> F  </i>
   <i type="logical" name="LVTOT"> F  </i>
   <i type="logical" name="LVHAR"> F  </i>
   <i type="logical" name="LELF"> F  </i>
   <i type="logical" name="LOPTICS"> F  </i>
   <v name="STM">      0.00000000      0.00000000      0.00000000      0.00000000      0.00000000      0.00000000      0.00000000</v>
  </separator>
  <separator name="performance" >
   <i type="int" name="NPAR">     4</i>
   <i type="int" name="NSIM">     4</i>
   <i type="int" name="NBLK">    -1</i>
   <i type="logical" name="LPLANE"> T  </i>
   <i type="logical" name="LSCALAPACK"> T  </i>
   <i type="logical" name="LSCAAWARE"> F  </i>
   <i type="logical" name="LSCALU"> F  </i>
   <i type="logical" name="LASYNC"> F  </i>
   <i type="logical" name="LORBITALREAL"> F  </i>
  </separator>
  <separator name="miscellaneous" >
   <i type="int" name="IDIOT">     3</i>
   <i type="logical" name="LMUSIC"> F  </i>
   <v name="POMASS">     30.97400000</v>
   <v name="DARWINR">      0.00000000</v>
   <v name="DARWINV">      1.00000000</v>
   <i type="logical" name="LCORR"> T  </i>
  </separator>
  <i type="logical" name="GGA_COMPAT"> T  </i>
  <i type="logical" name="LBERRY"> F  </i>
  <i type="int" name="ICORELEVEL">     0</i>
  <i type="logical" name="LDAU"> F  </i>
  <i type="int" name="I_CONSTRAINED_M">     0</i>
  <separator name="electronic exchange-correlation" >
   <i type="string" name="GGA">--</i>
   <i type="int" name="VOSKOWN">     0</i>
   <i type="logical" name="LHFCALC"> F  </i>
   <i type="string" name="PRECFOCK"></i>
   <i type="logical" name="LSYMGRAD"> F  </i>
   <i type="logical" name="LHFONE"> F  </i>
   <i type="logical" name="LRHFCALC"> F  </i>
   <i type="logical" name="LTHOMAS"> F  </i>
   <i type="logical" name="LMODELHF"> F  </i>
   <i name="ENCUT4O">     -1.00000000</i>
   <i type="int" name="EXXOEP">     0</i>
   <i type="int" name="FOURORBIT">     0</i>
   <i name="AEXX">      0.00000000</i>
   <i name="HFALPHA">      0.00000000</i>
   <i name="MCALPHA">      0.00000000</i>
   <i name="ALDAX">      1.00000000</i>
   <i name="AGGAX">      1.00000000</i>
   <i name="ALDAC">      1.00000000</i>
   <i name="AGGAC">      1.00000000</i>
   <i type="int" name="NKREDX">     1</i>
   <i type="int" name="NKREDY">     1</i>
   <i type="int" name="NKREDZ">     1</i>
   <i type="logical" name="SHIFTRED"> F  </i>
   <i type="logical" name="ODDONLY"> F  </i>
   <i type="logical" name="EVENONLY"> F  </i>
   <i type="int" name="LMAXFOCK">     0</i>
   <i type="int" name="NMAXFOCKAE">     0</i>
   <i type="logical" name="LFOCKAEDFT"> F  </i>
   <i name="HFSCREEN">      0.00000000</i>
   <i name="HFSCREENC">      0.00000000</i>
   <i type="int" name="NBANDSGWLOW">     0</i>
  </separator>
  <separator name="vdW DFT" >
   <i type="logical" name="LUSE_VDW"> F  </i>
   <i name="Zab_VDW">     -0.84910000</i>
   <i name="PARAM1">      0.12340000</i>
   <i name="PARAM2">      1.00000000</i>
   <i name="PARAM3">      0.00000000</i>
  </separator>
  <separator name="model GW" >
   <i type="int" name="MODEL_GW">     0</i>
   <i name="MODEL_EPS0">     50.36698078</i>
   <i name="MODEL_ALPHA">      1.00000000</i>
  </separator>
  <separator name="linear response parameters" >
   <i type="logical" name="LEPSILON"> F  </i>
   <i type="logical" name="LRPA"> F  </i>
   <i type="logical" name="LNABLA"> F  </i>
   <i type="logical" name="LVEL"> F  </i>
   <i type="int" name="KINTER">     0</i>
   <i name="CSHIFT">      0.10000000</i>
   <i name="OMEGAMAX">     -1.00000000</i>
   <i name="DEG_THRESHOLD">      0.00200000</i>
  </separator>
  <separator name="orbital magnetization" >
   <i type="logical" name="NUCIND"> F  </i>
   <v name="MAGPOS">      0.00000000      0.00000000      0.00000000</v>
   <i type="logical" name="LNICSALL"> T  </i>
   <i type="logical" name="ORBITALMAG"> F  </i>
   <i type="logical" name="LMAGBLOCH"> F  </i>
   <i type="logical" name="LCHIMAG"> F  </i>
   <i type="logical" name="LGAUGE"> T  </i>
   <i type="int" name="MAGATOM">     0</i>
   <v name="MAGDIPOL">      0.00000000      0.00000000      0.00000000</v>
   <v name="AVECCONST">      0.00000000      0.00000000      0.00000000</v>
  </separator>
  <separator name="response functions" >
   <i type="logical" name="LADDER"> F  </i>
   <i type="logical" name="LFXC"> F  </i>
   <i type="logical" name="LHARTREE"> T  </i>
   <i type="int" name="IBSE">     0</i>
   <v type="int" name="KPOINT">    -1     0     0     0</v>
   <i type="logical" name="LTCTE"> F  </i>
   <i type="logical" name="LTETE"> F  </i>
   <i type="logical" name="LTRIPLET"> F  </i>
   <i type="logical" name="LFXCEPS"> F  </i>
   <i type="logical" name="LFXHEG"> F  </i>
   <i type="int" name="NATURALO">     0</i>
   <i type="logical" name="L2ORDER"> F  </i>
   <i type="logical" name="LUSEW"> F  </i>
   <i name="ENCUTGW">     -2.00000000</i>
   <i name="ENCUTGWSOFT">     -2.00000000</i>
   <i name="ENCUTLF">     -1.00000000</i>
   <i type="int" name="LMAXMP2">    -1</i>
   <i name="SCISSOR">      0.00000000</i>
   <i type="int" name="NOMEGA">     0</i>
   <i type="int" name="NOMEGAR">     0</i>
   <i type="int" name="NBANDSGW">    -1</i>
   <i type="int" name="NBANDSO">    -1</i>
   <i type="int" name="NBANDSV">    -1</i>
   <i type="int" name="NELM">   250</i>
   <i type="int" name="NELMHF">     1</i>
   <i type="int" name="DIM">     3</i>
   <i type="int" name="ANTIRES">     0</i>
   <i name="OMEGAMAX">    -30.00000000</i>
   <i name="OMEGAMIN">    -30.00000000</i>
   <i name="OMEGATL">   -200.00000000</i>
   <i type="int" name="OMEGAGRID">     0</i>
   <i name="CSHIFT">     -0.10000000</i>
   <i type="logical" name="SELFENERGY"> F  </i>
   <i type="logical" name="LSPECTRAL"> F  </i>
   <i type="logical" name="LSPECTRALGW"> F  </i>
   <i type="logical" name="LSINGLES"> F  </i>
   <i type="logical" name="LFERMIGW"> F  </i>
   <i type="logical" name="ODDONLYGW"> F  </i>
   <i type="logical" name="EVENONLYGW"> F  </i>
   <i type="int" name="NKREDLFX">     1</i>
   <i type="int" name="NKREDLFY">     1</i>
   <i type="int" name="NKREDLFZ">     1</i>
   <i type="int" name="MAXMEM">  1800</i>
   <i type="int" name="TELESCOPE">     0</i>
   <i type="int" name="TAUPAR">     1</i>
   <i type="int" name="OMEGAPAR">    -1</i>
   <i name="LAMBDA">      1.00000000</i>
  </separator>
  <separator name="External order field" >
   <i name="OFIELD_KAPPA">      0.00000000</i>
   <v name="OFIELD_K">      0.00000000      0.00000000      0.00000000</v>
   <i name="OFIELD_Q6_NEAR">      0.00000000</i>
   <i name="OFIELD_Q6_FAR">      0.00000000</i>
   <i name="OFIELD_A">      0.00000000</i>
  </separator>
 </parameters>
 <atominfo>
  <atoms>       4 </atoms>
  <types>       1 </types>
  <array name="atoms" >
   <dimension dim="1">ion</dimension>
   <field type="string">element</field>
   <field type="int">atomtype</field>
   <set>
    <rc><c>P </c><c>   1</c></rc>
    <rc><c>P </c><c>   1</c></rc>
    <rc><c>P </c><c>   1</c></rc>
    <rc><c>P </c><c>   1</c></rc>
   </set>
  </array>
  <array name="atomtypes" >
   <dimension dim="1">type</dimension>
   <field type="int">atomspertype</field>
   <field type="string">element</field>
   <field>mass</field>
   <field>valence</field>
   <field type="string">pseudopotential</field>
   <set>
    <rc><c>   4</c><c>P </c><c>     30.97400000</c><c>      5.00000000</c><c>  PAW_PBE P 06Sep2000                   </c></rc>
   </set>
  </array>
 </atominfo>
 <structure name="initialpos" >
  <crystal>
   <varray name="basis" >
    <v>       3.45813700       0.00000000       0.00000000 </v>
    <v>       0.00000000       4.84901100      -0.00005300 </v>
    <v>       0.00000000       0.00000000      20.02439000 </v>
   </varray>
   <i name="volume">    335.77987185 </i>
   <varray name="rec_basis" >
    <v>       0.28917304       0.00000000       0.00000000 </v>
    <v>       0.00000000       0.20622762       0.00000000 </v>
    <v>       0.00000000       0.00000055       0.04993910 </v>
   </varray>
  </crystal>
  <varray name="positions" >
   <v>       0.50000000       0.91077300       0.55252100 </v>
   <v>       0.50000000       0.08922700       0.44747900 </v>
   <v>       0.00000000       0.41076900       0.44747900 </v>
   <v>       0.00000000       0.58923100       0.55252100 </v>
  </varray>
 </structure>
 <calculation>
  <scstep>
   <time name="dav">    1.52    1.52</time>
   <time name="total">    1.55    1.55</time>
   <energy>
    <i name="alphaZ">      4.77741870 </i>
    <i name="ewald">   1649.41883113 </i>
    <i name="hartreedc">  -2244.30962019 </i>
    <i name="XCdc">     12.19755250 </i>
    <i name="pawpsdc">    559.04011960 </i>
    <i name="pawaedc">   -526.39432044 </i>
    <i name="eentropy">     -0.00067463 </i>
    <i name="bandstr">    -29.12433381 </i>
    <i name="atom">    704.16778566 </i>
    <i name="e_fr_energy">    129.77275853 </i>
    <i name="e_wo_entrp">    129.77343316 </i>
    <i name="e_0_energy">    129.77309584 </i>
   </energy>
  </scstep>
  <scstep>
   <time name="dav">    2.05    2.05</time>
   <time name="total">    2.05    2.06</time>
   <energy>
    <i name="e_fr_energy">     -5.54010653 </i>
    <i name="e_wo_entrp">     -5.54010653 </i>
    <i name="e_0_energy">     -5.54010653 </i>
   </energy>
  </scstep>
  <scstep>
   <time name="dav">    1.88    1.88</time>
   <time name="total">    1.88    1.88</time>
   <energy>
    <i name="e_fr_energy">    -21.04318449 </i>
    <i name="e_wo_entrp">    -21.04318449 </i>
    <i name="e_0_energy">    -21.04318449 </i>
   </energy>
  </scstep>
  <scstep>
   <time name="dav">    1.87    1.87</time>
   <time name="total">    1.87    1.87</time>
   <energy>
    <i name="e_fr_energy">    -21.37037574 </i>
    <i name="e_wo_entrp">    -21.37037574 </i>
    <i name="e_0_energy">    -21.37037574 </i>
   </energy>
  </scstep>
  <scstep>
   <time name="dav">    2.03    2.03</time>
   <time name="total">    2.13    2.13</time>
   <energy>
    <i name="e_fr_energy">    -21.38105520 </i>
    <i name="e_wo_entrp">    -21.38105520 </i>
    <i name="e_0_energy">    -21.38105520 </i>
   </energy>
  </scstep>
  <scstep>
   <time name="dav">    1.84    1.84</time>
   <time name="total">    1.96    1.96</time>
   <energy>
    <i name="e_fr_energy">    -21.27980653 </i>
    <i name="e_wo_entrp">    -21.27980653 </i>
    <i name="e_0_energy">    -21.27980653 </i>
   </energy>
  </scstep>
  <scstep>
   <time name="dav">    1.78    1.78</time>
   <time name="total">    1.90    1.90</time>
   <energy>
    <i name="e_fr_energy">    -21.22739547 </i>
    <i name="e_wo_entrp">    -21.22739547 </i>
    <i name="e_0_energy">    -21.22739547 </i>
   </energy>
  </scstep>
  <scstep>
   <time name="dav">    1.83    1.83</time>
   <time name="total">    1.94    1.95</time>
   <energy>
    <i name="e_fr_energy">    -21.22762317 </i>
    <i name="e_wo_entrp">    -21.22762317 </i>
    <i name="e_0_energy">    -21.22762317 </i>
   </energy>
  </scstep>
  <scstep>
   <time name="dav">    2.13    2.13</time>
   <time name="total">    2.24    2.24</time>
   <energy>
    <i name="e_fr_energy">    -21.22756721 </i>
    <i name="e_wo_entrp">    -21.22756721 </i>
    <i name="e_0_energy">    -21.22756721 </i>
   </energy>
  </scstep>
  <scstep>
   <time name="dav">    1.92    1.92</time>
   <time name="total">    2.03    2.03</time>
   <energy>
    <i name="e_fr_energy">    -21.22755248 </i>
    <i name="e_wo_entrp">    -21.22755248 </i>
    <i name="e_0_energy">    -21.22755248 </i>
   </energy>
  </scstep>
  <scstep>
   <time name="dav">    1.78    1.78</time>
   <time name="total">    1.89    1.89</time>
   <energy>
    <i name="e_fr_energy">    -21.22756600 </i>
    <i name="e_wo_entrp">    -21.22756600 </i>
    <i name="e_0_energy">    -21.22756600 </i>
   </energy>
  </scstep>
  <scstep>
   <time name="dav">    1.64    1.64</time>
   <time name="total">    1.75    1.75</time>
   <energy>
    <i name="e_fr_energy">    -21.22773638 </i>
    <i name="e_wo_entrp">    -21.22773638 </i>
    <i name="e_0_energy">    -21.22773638 </i>
   </energy>
  </scstep>
  <scstep>
   <time name="dav">    1.70    1.70</time>
   <time name="total">    1.81    1.81</time>
   <energy>
    <i name="e_fr_energy">    -21.22794212 </i>
    <i name="e_wo_entrp">    -21.22794212 </i>
    <i name="e_0_energy">    -21.22794212 </i>
   </energy>
  </scstep>
  <scstep>
   <time name="dav">    1.61    1.61</time>
   <time name="total">    1.72    1.72</time>
   <energy>
    <i name="e_fr_energy">    -21.22800067 </i>
    <i name="e_wo_entrp">    -21.22800067 </i>
    <i name="e_0_energy">    -21.22800067 </i>
   </energy>
  </scstep>
  <scstep>
   <time name="dav">    1.53    1.53</time>
   <time name="total">    1.64    1.64</time>
   <energy>
    <i name="e_fr_energy">    -21.22803313 </i>
    <i name="e_wo_entrp">    -21.22803313 </i>
    <i name="e_0_energy">    -21.22803313 </i>
   </energy>
  </scstep>
  <scstep>
   <time name="dav">    1.51    1.51</time>
   <time name="total">    1.62    1.63</time>
   <energy>
    <i name="e_fr_energy">    -21.22804988 </i>
    <i name="e_wo_entrp">    -21.22804988 </i>
    <i name="e_0_energy">    -21.22804988 </i>
   </energy>
  </scstep>
  <scstep>
   <time name="dav">    1.51    1.51</time>
   <time name="total">    1.53    1.53</time>
   <energy>
    <i name="alphaZ">      4.77741870 </i>
    <i name="ewald">   1649.41883113 </i>
    <i name="hartreedc">  -2256.21838674 </i>
    <i name="XCdc">     13.12798399 </i>
    <i name="pawpsdc">   1743.51799352 </i>
    <i name="pawaedc">  -1711.08175916 </i>
    <i name="eentropy">     -0.00000000 </i>
    <i name="bandstr">   -168.93791865 </i>
    <i name="atom">    704.16778566 </i>
    <i name="e_fr_energy">    -21.22805155 </i>
    <i name="e_wo_entrp">    -21.22805155 </i>
    <i name="e_0_energy">    -21.22805155 </i>
   </energy>
  </scstep>
  <structure>
   <crystal>
    <varray name="basis" >
     <v>       3.45813700       0.00000000       0.00000000 </v>
     <v>       0.00000000       4.84901100      -0.00005300 </v>
     <v>       0.00000000       0.00000000      20.02439000 </v>
    </varray>
    <i name="volume">    335.77987185 </i>
    <varray name="rec_basis" >
     <v>       0.28917304       0.00000000       0.00000000 </v>
     <v>       0.00000000       0.20622762       0.00000000 </v>
     <v>       0.00000000       0.00000055       0.04993910 </v>
    </varray>
   </crystal>
   <varray name="positions" >
    <v>       0.50000000       0.91077300       0.55252100 </v>
    <v>       0.50000000       0.08922700       0.44747900 </v>
    <v>       0.00000000       0.41076900       0.44747900 </v>
    <v>       0.00000000       0.58923100       0.55252100 </v>
   </varray>
  </structure>
  <varray name="forces" >
   <v>      -0.00000007      -0.69477235      -0.18855819 </v>
   <v>       0.00000007       0.69477235       0.18855819 </v>
   <v>       0.00000015      -0.69478665       0.18857539 </v>
   <v>      -0.00000015       0.69478665      -0.18857539 </v>
  </varray>
  <varray name="stress" >
   <v>     -24.67086239      -0.00000008      -0.00000075 </v>
   <v>      -0.00000006     -18.87827919       0.00035138 </v>
   <v>      -0.00000074       0.00035141      -3.84500029 </v>
  </varray>
  <energy>
   <i name="e_fr_energy">    -21.22805155 </i>
   <i name="e_wo_entrp">    -21.22805155 </i>
   <i name="e_0_energy">     -0.00000000 </i>
  </energy>
  <time name="totalsc">   32.35   32.39</time>
 </calculation>
 <calculation>
  <scstep>
   <time name="dav">    1.62    1.62</time>
   <time name="total">    1.73    1.74</time>
   <energy>
    <i name="alphaZ">      4.77741870 </i>
    <i name="ewald">   1656.56293610 </i>
    <i name="hartreedc">  -2262.38082986 </i>
    <i name="XCdc">     13.24436836 </i>
    <i name="pawpsdc">   1743.30151152 </i>
    <i name="pawaedc">  -1710.86526401 </i>
    <i name="eentropy">     -0.00000000 </i>
    <i name="bandstr">   -170.07769262 </i>
    <i name="atom">    704.16778566 </i>
    <i name="e_fr_energy">    -21.26976615 </i>
    <i name="e_wo_entrp">    -21.26976615 </i>
    <i name="e_0_energy">    -21.26976615 </i>
   </energy>
  </scstep>
  <scstep>
   <time name="dav">    1.85    1.85</time>
   <time name="total">    1.96    1.96</time>
   <energy>
    <i name="e_fr_energy">    -21.27494126 </i>
    <i name="e_wo_entrp">    -21.27494126 </i>
    <i name="e_0_energy">    -21.27494126 </i>
   </energy>
  </scstep>
  <scstep>
   <time name="dav">    2.07    2.07</time>
   <time name="total">    2.18    2.18</time>
   <energy>
    <i name="e_fr_energy">    -21.27498501 </i>
    <i name="e_wo_entrp">    -21.27498501 </i>
    <i name="e_0_energy">    -21.27498501 </i>
   </energy>
  </scstep>
  <scstep>
   <time name="dav">    2.08    2.08</time>
   <time name="total">    2.19    2.19</time>
   <energy>
    <i name="e_fr_energy">    -21.27497218 </i>
    <i name="e_wo_entrp">    -21.27497218 </i>
    <i name="e_0_energy">    -21.27497218 </i>
   </energy>
  </scstep>
  <scstep>
   <time name="dav">    1.67    1.67</time>
   <time name="total">    1.78    1.78</time>
   <energy>
    <i name="e_fr_energy">    -21.27497605 </i>
    <i name="e_wo_entrp">    -21.27497605 </i>
    <i name="e_0_energy">    -21.27497605 </i>
   </energy>
  </scstep>
  <scstep>
   <time name="dav">    1.40    1.40</time>
   <time name="total">    1.42    1.42</time>
   <energy>
    <i name="alphaZ">      4.77741870 </i>
    <i name="ewald">   1656.56293610 </i>
    <i name="hartreedc">  -2262.34028998 </i>
    <i name="XCdc">     13.25317932 </i>
    <i name="pawpsdc">   1801.29004038 </i>
    <i name="pawaedc">  -1768.87522167 </i>
    <i name="eentropy">     -0.00000000 </i>
    <i name="bandstr">   -170.11082504 </i>
    <i name="atom">    704.16778566 </i>
    <i name="e_fr_energy">    -21.27497654 </i>
    <i name="e_wo_entrp">    -21.27497654 </i>
    <i name="e_0_energy">    -21.27497654 </i>
   </energy>
  </scstep>
  <structure>
   <crystal>
    <varray name="basis" >
     <v>       3.45813700       0.00000000       0.00000000 </v>
     <v>       0.00000000       4.84901100      -0.00005300 </v>
     <v>       0.00000000       0.00000000      20.02439000 </v>
    </varray>
    <i name="volume">    335.77987185 </i>
    <varray name="rec_basis" >
     <v>       0.28917304       0.00000000       0.00000000 </v>
     <v>       0.00000000       0.20622762       0.00000000 </v>
     <v>       0.00000000       0.00000055       0.04993910 </v>
    </varray>
   </crystal>
   <varray name="positions" >
    <v>       0.50000000       0.90662564       0.55224842 </v>
    <v>       0.50000000       0.09337436       0.44775158 </v>
    <v>       0.00000000       0.40662155       0.44775158 </v>
    <v>      -0.00000000       0.59337845       0.55224842 </v>
   </varray>
  </structure>
  <varray name="forces" >
   <v>      -0.00000011      -0.36837751      -0.17347665 </v>
   <v>       0.00000011       0.36837751       0.17347665 </v>
   <v>       0.00000016      -0.36839011       0.17348359 </v>
   <v>      -0.00000016       0.36839011      -0.17348359 </v>
  </varray>
  <varray name="stress" >
   <v>     -24.30921054      -0.00000035       0.00000132 </v>
   <v>      -0.00000037     -14.08460289       0.00027469 </v>
   <v>       0.00000129       0.00027474      -3.60120825 </v>
  </varray>
  <energy>
   <i name="e_fr_energy">    -21.27497654 </i>
   <i name="e_wo_entrp">    -21.27497654 </i>
   <i name="e_0_energy">     -0.00000000 </i>
  </energy>
  <time name="totalsc">   12.10   12.12</time>
 </calculation>
 <calculation>
  <scstep>
   <time name="dav">    1.61    1.61</time>
   <time name="total">    1.72    1.73</time>
   <energy>
    <i name="alphaZ">      4.77741870 </i>
    <i name="ewald">   1664.81300142 </i>
    <i name="hartreedc">  -2269.38322740 </i>
    <i name="XCdc">     13.38697314 </i>
    <i name="pawpsdc">   1801.71693295 </i>
    <i name="pawaedc">  -1769.30210716 </i>
    <i name="eentropy">     -0.00000000 </i>
    <i name="bandstr">   -171.46453203 </i>
    <i name="atom">    704.16778566 </i>
    <i name="e_fr_energy">    -21.28775471 </i>
    <i name="e_wo_entrp">    -21.28775471 </i>
    <i name="e_0_energy">    -21.28775471 </i>
   </energy>
  </scstep>
  <scstep>
   <time name="dav">    1.87    1.87</time>
   <time name="total">    1.98    1.98</time>
   <energy>
    <i name="e_fr_energy">    -21.29463478 </i>
    <i name="e_wo_entrp">    -21.29463478 </i>
    <i name="e_0_energy">    -21.29463478 </i>
   </energy>
  </scstep>
  <scstep>
   <time name="dav">    2.06    2.06</time>
   <time name="total">    2.17    2.17</time>
   <energy>
    <i name="e_fr_energy">    -21.29468475 </i>
    <i name="e_wo_entrp">    -21.29468475 </i>
    <i name="e_0_energy">    -21.29468475 </i>
   </energy>
  </scstep>
  <scstep>
   <time name="dav">    2.09    2.09</time>
   <time name="total">    2.20    2.20</time>
   <energy>
    <i name="e_fr_energy">    -21.29466885 </i>
    <i name="e_wo_entrp">    -21.29466885 </i>
    <i name="e_0_energy">    -21.29466885 </i>
   </energy>
  </scstep>
  <scstep>
   <time name="dav">    1.71    1.71</time>
   <time name="total">    1.82    1.82</time>
   <energy>
    <i name="e_fr_energy">    -21.29467872 </i>
    <i name="e_wo_entrp">    -21.29467872 </i>
    <i name="e_0_energy">    -21.29467872 </i>
   </energy>
  </scstep>
  <scstep>
   <time name="dav">    1.38    1.38</time>
   <time name="total">    1.40    1.41</time>
   <energy>
    <i name="alphaZ">      4.77741870 </i>
    <i name="ewald">   1664.81300142 </i>
    <i name="hartreedc">  -2269.32552772 </i>
    <i name="XCdc">     13.39707996 </i>
    <i name="pawpsdc">   1872.02370289 </i>
    <i name="pawaedc">  -1839.63481552 </i>
    <i name="eentropy">     -0.00000000 </i>
    <i name="bandstr">   -171.51332641 </i>
    <i name="atom">    704.16778566 </i>
    <i name="e_fr_energy">    -21.29468103 </i>
    <i name="e_wo_entrp">    -21.29468103 </i>
    <i name="e_0_energy">    -21.29468103 </i>
   </energy>
  </scstep>
  <structure>
   <crystal>
    <varray name="basis" >
     <v>       3.45813700       0.00000000       0.00000000 </v>
     <v>       0.00000000       4.84901100      -0.00005300 </v>
     <v>       0.00000000       0.00000000      20.02439000 </v>
    </varray>
    <i name="volume">    335.77987185 </i>
    <varray name="rec_basis" >
     <v>       0.28917304       0.00000000       0.00000000 </v>
     <v>       0.00000000       0.20622762       0.00000000 </v>
     <v>       0.00000000       0.00000055       0.04993910 </v>
    </varray>
   </crystal>
   <varray name="positions" >
    <v>       0.50000000       0.90189347       0.55193741 </v>
    <v>       0.50000000       0.09810653       0.44806259 </v>
    <v>       0.00000000       0.40188929       0.44806259 </v>
    <v>      -0.00000000       0.59811071       0.55193741 </v>
   </varray>
  </structure>
  <varray name="forces" >
   <v>       0.00000014       0.03792590      -0.16421178 </v>
   <v>      -0.00000014      -0.03792590       0.16421178 </v>
   <v>       0.00000016       0.03791616       0.16420929 </v>
   <v>      -0.00000016      -0.03791616      -0.16420929 </v>
  </varray>
  <varray name="stress" >
   <v>     -23.38877641      -0.00000125      -0.00000056 </v>
   <v>      -0.00000130      -8.46091201       0.00018802 </v>
   <v>      -0.00000053       0.00018807      -3.41355071 </v>
  </varray>
  <energy>
   <i name="e_fr_energy">    -21.29468103 </i>
   <i name="e_wo_entrp">    -21.29468103 </i>
   <i name="e_0_energy">     -0.00000000 </i>
  </energy>
  <time name="totalsc">   12.14   12.15</time>
 </calculation>
 <calculation>
  <scstep>
   <time name="dav">    1.49    1.49</time>
   <time name="total">    1.60    1.60</time>
   <energy>
    <i name="alphaZ">      4.77741870 </i>
    <i name="ewald">   1669.88700361 </i>
    <i name="hartreedc">  -2274.10719972 </i>
    <i name="XCdc">     13.43214058 </i>
    <i name="pawpsdc">   1872.51775930 </i>
    <i name="pawaedc">  -1840.12887311 </i>
    <i name="eentropy">     -0.00000000 </i>
    <i name="bandstr">   -171.84318492 </i>
    <i name="atom">    704.16778566 </i>
    <i name="e_fr_energy">    -21.29714990 </i>
    <i name="e_wo_entrp">    -21.29714990 </i>
    <i name="e_0_energy">    -21.29714990 </i>
   </energy>
  </scstep>
  <scstep>
   <time name="dav">    1.86    1.86</time>
   <time name="total">    1.97    1.97</time>
   <energy>
    <i name="e_fr_energy">    -21.29779478 </i>
    <i name="e_wo_entrp">    -21.29779478 </i>
    <i name="e_0_energy">    -21.29779478 </i>
   </energy>
  </scstep>
  <scstep>
   <time name="dav">    2.02    2.02</time>
   <time name="total">    2.13    2.14</time>
   <energy>
    <i name="e_fr_energy">    -21.29778555 </i>
    <i name="e_wo_entrp">    -21.29778555 </i>
    <i name="e_0_energy">    -21.29778555 </i>
   </energy>
  </scstep>
  <scstep>
   <time name="dav">    1.80    1.80</time>
   <time name="total">    1.91    1.91</time>
   <energy>
    <i name="e_fr_energy">    -21.29778824 </i>
    <i name="e_wo_entrp">    -21.29778824 </i>
    <i name="e_0_energy">    -21.29778824 </i>
   </energy>
  </scstep>
  <scstep>
   <time name="dav">    1.31    1.31</time>
   <time name="total">    1.42    1.42</time>
   <energy>
    <i name="e_fr_energy">    -21.29779044 </i>
    <i name="e_wo_entrp">    -21.29779044 </i>
    <i name="e_0_energy">    -21.29779044 </i>
   </energy>
  </scstep>
  <scstep>
   <time name="dav">    1.32    1.32</time>
   <time name="total">    1.34    1.34</time>
   <energy>
    <i name="alphaZ">      4.77741870 </i>
    <i name="ewald">   1669.88700361 </i>
    <i name="hartreedc">  -2274.06692400 </i>
    <i name="XCdc">     13.43396541 </i>
    <i name="pawpsdc">   1888.52141541 </i>
    <i name="pawaedc">  -1856.13807301 </i>
    <i name="eentropy">     -0.00000000 </i>
    <i name="bandstr">   -171.88038485 </i>
    <i name="atom">    704.16778566 </i>
    <i name="e_fr_energy">    -21.29779308 </i>
    <i name="e_wo_entrp">    -21.29779308 </i>
    <i name="e_0_energy">    -21.29779308 </i>
   </energy>
  </scstep>
  <structure>
   <crystal>
    <varray name="basis" >
     <v>       3.45813700       0.00000000       0.00000000 </v>
     <v>       0.00000000       4.84901100      -0.00005300 </v>
     <v>       0.00000000       0.00000000      20.02439000 </v>
    </varray>
    <i name="volume">    335.77987185 </i>
    <varray name="rec_basis" >
     <v>       0.28917304       0.00000000       0.00000000 </v>
     <v>       0.00000000       0.20622762       0.00000000 </v>
     <v>       0.00000000       0.00000055       0.04993910 </v>
    </varray>
   </crystal>
   <varray name="positions" >
    <v>       0.50000000       0.90193776       0.55163051 </v>
    <v>       0.50000000       0.09806224       0.44836949 </v>
    <v>       0.00000000       0.40193350       0.44836949 </v>
    <v>      -0.00000000       0.59806650       0.55163051 </v>
   </varray>
  </structure>
  <varray name="forces" >
   <v>       0.00000006       0.01241636      -0.08416533 </v>
   <v>      -0.00000006      -0.01241636       0.08416533 </v>
   <v>      -0.00000021       0.01240756       0.08416381 </v>
   <v>       0.00000021      -0.01240756      -0.08416381 </v>
  </varray>
  <varray name="stress" >
   <v>     -23.24302936      -0.00000145       0.00000200 </v>
   <v>      -0.00000135      -8.20658661       0.00017575 </v>
   <v>       0.00000200       0.00017572      -1.76960298 </v>
  </varray>
  <energy>
   <i name="e_fr_energy">    -21.29779308 </i>
   <i name="e_wo_entrp">    -21.29779308 </i>
   <i name="e_0_energy">     -0.00000000 </i>
  </energy>
  <time name="totalsc">   11.21   11.22</time>
 </calculation>
 <calculation>
  <scstep>
   <time name="dav">    1.49    1.49</time>
   <time name="total">    1.60    1.60</time>
   <energy>
    <i name="alphaZ">      4.77741870 </i>
    <i name="ewald">   1675.19877418 </i>
    <i name="hartreedc">  -2279.05979268 </i>
    <i name="XCdc">     13.47088987 </i>
    <i name="pawpsdc">   1888.56807444 </i>
    <i name="pawaedc">  -1856.18462678 </i>
    <i name="eentropy">     -0.00000000 </i>
    <i name="bandstr">   -172.23668747 </i>
    <i name="atom">    704.16778566 </i>
    <i name="e_fr_energy">    -21.29816407 </i>
    <i name="e_wo_entrp">    -21.29816407 </i>
    <i name="e_0_energy">    -21.29816407 </i>
   </energy>
  </scstep>
  <scstep>
   <time name="dav">    1.86    1.86</time>
   <time name="total">    1.97    1.97</time>
   <energy>
    <i name="e_fr_energy">    -21.29887584 </i>
    <i name="e_wo_entrp">    -21.29887584 </i>
    <i name="e_0_energy">    -21.29887584 </i>
   </energy>
  </scstep>
  <scstep>
   <time name="dav">    2.04    2.04</time>
   <time name="total">    2.16    2.16</time>
   <energy>
    <i name="e_fr_energy">    -21.29886211 </i>
    <i name="e_wo_entrp">    -21.29886211 </i>
    <i name="e_0_energy">    -21.29886211 </i>
   </energy>
  </scstep>
  <scstep>
   <time name="dav">    1.80    1.80</time>
   <time name="total">    1.91    1.91</time>
   <energy>
    <i name="e_fr_energy">    -21.29886187 </i>
    <i name="e_wo_entrp">    -21.29886187 </i>
    <i name="e_0_energy">    -21.29886187 </i>
   </energy>
  </scstep>
  <scstep>
   <time name="dav">    1.29    1.29</time>
   <time name="total">    1.40    1.40</time>
   <energy>
    <i name="e_fr_energy">    -21.29886201 </i>
    <i name="e_wo_entrp">    -21.29886201 </i>
    <i name="e_0_energy">    -21.29886201 </i>
   </energy>
  </scstep>
  <scstep>
   <time name="dav">    1.24    1.24</time>
   <time name="total">    1.26    1.26</time>
   <energy>
    <i name="alphaZ">      4.77741870 </i>
    <i name="ewald">   1675.19877418 </i>
    <i name="hartreedc">  -2279.05546723 </i>
    <i name="XCdc">     13.47337172 </i>
    <i name="pawpsdc">   1905.70258963 </i>
    <i name="pawaedc">  -1873.32523110 </i>
    <i name="eentropy">     -0.00000000 </i>
    <i name="bandstr">   -172.23810439 </i>
    <i name="atom">    704.16778566 </i>
    <i name="e_fr_energy">    -21.29886283 </i>
    <i name="e_wo_entrp">    -21.29886283 </i>
    <i name="e_0_energy">    -21.29886283 </i>
   </energy>
  </scstep>
  <structure>
   <crystal>
    <varray name="basis" >
     <v>       3.45813700       0.00000000       0.00000000 </v>
     <v>       0.00000000       4.84901100      -0.00005300 </v>
     <v>       0.00000000       0.00000000      20.02439000 </v>
    </varray>
    <i name="volume">    335.77987185 </i>
    <varray name="rec_basis" >
     <v>       0.28917304       0.00000000       0.00000000 </v>
     <v>       0.00000000       0.20622762       0.00000000 </v>
     <v>       0.00000000       0.00000055       0.04993910 </v>
    </varray>
   </crystal>
   <varray name="positions" >
    <v>       0.50000000       0.90198405       0.55130973 </v>
    <v>       0.50000000       0.09801595       0.44869027 </v>
    <v>       0.00000001       0.40197971       0.44869027 </v>
    <v>      -0.00000001       0.59802029       0.55130973 </v>
   </varray>
  </structure>
  <varray name="forces" >
   <v>       0.00000006      -0.01562739       0.00359743 </v>
   <v>      -0.00000006       0.01562739      -0.00359743 </v>
   <v>      -0.00000034      -0.01563528      -0.00359765 </v>
   <v>       0.00000034       0.01563528       0.00359765 </v>
  </varray>
  <varray name="stress" >
   <v>     -23.07071652      -0.00000163       0.00000174 </v>
   <v>      -0.00000158      -7.92354061       0.00016409 </v>
   <v>       0.00000170       0.00016406      -0.03604453 </v>
  </varray>
  <energy>
   <i name="e_fr_energy">    -21.29886283 </i>
   <i name="e_wo_entrp">    -21.29886283 </i>
   <i name="e_0_energy">     -0.00000000 </i>
  </energy>
  <time name="totalsc">   11.13   11.15</time>
 </calculation>
 <calculation>
  <scstep>
   <time name="dav">    1.52    1.52</time>
   <time name="total">    1.63    1.64</time>
   <energy>
    <i name="alphaZ">      4.77741870 </i>
    <i name="ewald">   1674.95058101 </i>
    <i name="hartreedc">  -2278.80638361 </i>
    <i name="XCdc">     13.47142047 </i>
    <i name="pawpsdc">   1905.74665404 </i>
    <i name="pawaedc">  -1873.36917483 </i>
    <i name="eentropy">     -0.00000000 </i>
    <i name="bandstr">   -172.23716625 </i>
    <i name="atom">    704.16778566 </i>
    <i name="e_fr_energy">    -21.29886481 </i>
    <i name="e_wo_entrp">    -21.29886481 </i>
    <i name="e_0_energy">    -21.29886481 </i>
   </energy>
  </scstep>
  <scstep>
   <time name="dav">    1.35    1.35</time>
   <time name="total">    1.46    1.46</time>
   <energy>
    <i name="e_fr_energy">    -21.29886650 </i>
    <i name="e_wo_entrp">    -21.29886650 </i>
    <i name="e_0_energy">    -21.29886650 </i>
   </energy>
  </scstep>
  <scstep>
   <time name="dav">    1.21    1.21</time>
   <time name="total">    1.32    1.32</time>
   <energy>
    <i name="e_fr_energy">    -21.29886735 </i>
    <i name="e_wo_entrp">    -21.29886735 </i>
    <i name="e_0_energy">    -21.29886735 </i>
   </energy>
  </scstep>
  <scstep>
   <time name="dav">    1.29    1.29</time>
   <time name="total">    1.40    1.40</time>
   <energy>
    <i name="e_fr_energy">    -21.29886817 </i>
    <i name="e_wo_entrp">    -21.29886817 </i>
    <i name="e_0_energy">    -21.29886817 </i>
   </energy>
  </scstep>
  <scstep>
   <time name="dav">    1.36    1.36</time>
   <time name="total">    1.47    1.47</time>
   <energy>
    <i name="e_fr_energy">    -21.29886916 </i>
    <i name="e_wo_entrp">    -21.29886916 </i>
    <i name="e_0_energy">    -21.29886916 </i>
   </energy>
  </scstep>
  <scstep>
   <time name="dav">    1.25    1.25</time>
   <time name="total">    1.28    1.28</time>
   <energy>
    <i name="alphaZ">      4.77741870 </i>
    <i name="ewald">   1674.95058101 </i>
    <i name="hartreedc">  -2278.78650195 </i>
    <i name="XCdc">     13.47111475 </i>
    <i name="pawpsdc">   1904.92940751 </i>
    <i name="pawaedc">  -1872.55166434 </i>
    <i name="eentropy">     -0.00000000 </i>
    <i name="bandstr">   -172.25701096 </i>
    <i name="atom">    704.16778566 </i>
    <i name="e_fr_energy">    -21.29886961 </i>
    <i name="e_wo_entrp">    -21.29886961 </i>
    <i name="e_0_energy">    -21.29886961 </i>
   </energy>
  </scstep>
  <structure>
   <crystal>
    <varray name="basis" >
     <v>       3.45813700       0.00000000       0.00000000 </v>
     <v>       0.00000000       4.84901100      -0.00005300 </v>
     <v>       0.00000000       0.00000000      20.02439000 </v>
    </varray>
    <i name="volume">    335.77987185 </i>
    <varray name="rec_basis" >
     <v>       0.28917304       0.00000000       0.00000000 </v>
     <v>       0.00000000       0.20622762       0.00000000 </v>
     <v>       0.00000000       0.00000055       0.04993910 </v>
    </varray>
   </crystal>
   <varray name="positions" >
    <v>       0.50000000       0.90198189       0.55132470 </v>
    <v>       0.50000000       0.09801811       0.44867530 </v>
    <v>       0.00000001       0.40197755       0.44867530 </v>
    <v>      -0.00000001       0.59802245       0.55132470 </v>
   </varray>
  </structure>
  <varray name="forces" >
   <v>      -0.00000013      -0.01409201      -0.00121558 </v>
   <v>       0.00000013       0.01409201       0.00121558 </v>
   <v>      -0.00000028      -0.01410038       0.00121557 </v>
   <v>       0.00000028       0.01410038      -0.00121557 </v>
  </varray>
  <varray name="stress" >
   <v>     -23.06228169      -0.00000265       0.00000075 </v>
   <v>      -0.00000262      -7.92901696       0.00016416 </v>
   <v>       0.00000074       0.00016417      -0.09482415 </v>
  </varray>
  <energy>
   <i name="e_fr_energy">    -21.29886961 </i>
   <i name="e_wo_entrp">    -21.29886961 </i>
   <i name="e_0_energy">     -0.00000000 </i>
  </energy>
  <time name="totalsc">    9.39    9.41</time>
 </calculation>
 <calculation>
  <scstep>
   <time name="dav">    1.44    1.44</time>
   <time name="total">    1.55    1.55</time>
   <energy>
    <i name="alphaZ">      4.77741870 </i>
    <i name="ewald">   1674.98747213 </i>
    <i name="hartreedc">  -2278.81528780 </i>
    <i name="XCdc">     13.47132519 </i>
    <i name="pawpsdc">   1904.88928285 </i>
    <i name="pawaedc">  -1872.51155188 </i>
    <i name="eentropy">     -0.00000000 </i>
    <i name="bandstr">   -172.26531525 </i>
    <i name="atom">    704.16778566 </i>
    <i name="e_fr_energy">    -21.29887040 </i>
    <i name="e_wo_entrp">    -21.29887040 </i>
    <i name="e_0_energy">    -21.29887040 </i>
   </energy>
  </scstep>
  <scstep>
   <time name="dav">    1.25    1.25</time>
   <time name="total">    1.36    1.36</time>
   <energy>
    <i name="e_fr_energy">    -21.29887050 </i>
    <i name="e_wo_entrp">    -21.29887050 </i>
    <i name="e_0_energy">    -21.29887050 </i>
   </energy>
  </scstep>
  <scstep>
   <time name="dav">    1.17    1.17</time>
   <time name="total">    1.28    1.28</time>
   <energy>
    <i name="e_fr_energy">    -21.29887055 </i>
    <i name="e_wo_entrp">    -21.29887055 </i>
    <i name="e_0_energy">    -21.29887055 </i>
   </energy>
  </scstep>
  <scstep>
   <time name="dav">    1.17    1.17</time>
   <time name="total">    1.28    1.28</time>
   <energy>
    <i name="e_fr_energy">    -21.29887060 </i>
    <i name="e_wo_entrp">    -21.29887060 </i>
    <i name="e_0_energy">    -21.29887060 </i>
   </energy>
  </scstep>
  <scstep>
   <time name="dav">    1.12    1.12</time>
   <time name="total">    1.23    1.23</time>
   <energy>
    <i name="e_fr_energy">    -21.29887061 </i>
    <i name="e_wo_entrp">    -21.29887061 </i>
    <i name="e_0_energy">    -21.29887061 </i>
   </energy>
  </scstep>
  <scstep>
   <time name="dav">    1.14    1.14</time>
   <time name="total">    1.16    1.16</time>
   <energy>
    <i name="alphaZ">      4.77741870 </i>
    <i name="ewald">   1674.98747213 </i>
    <i name="hartreedc">  -2278.81329579 </i>
    <i name="XCdc">     13.47132905 </i>
    <i name="pawpsdc">   1905.02119560 </i>
    <i name="pawaedc">  -1872.64350802 </i>
    <i name="eentropy">     -0.00000000 </i>
    <i name="bandstr">   -172.26726795 </i>
    <i name="atom">    704.16778566 </i>
    <i name="e_fr_energy">    -21.29887062 </i>
    <i name="e_wo_entrp">    -21.29887062 </i>
    <i name="e_0_energy">    -21.29887062 </i>
   </energy>
  </scstep>
  <structure>
   <crystal>
    <varray name="basis" >
     <v>       3.45813700       0.00000000       0.00000000 </v>
     <v>       0.00000000       4.84901100      -0.00005300 </v>
     <v>       0.00000000       0.00000000      20.02439000 </v>
    </varray>
    <i name="volume">    335.77987185 </i>
    <varray name="rec_basis" >
     <v>       0.28917304       0.00000000       0.00000000 </v>
     <v>       0.00000000       0.20622762       0.00000000 </v>
     <v>       0.00000000       0.00000055       0.04993910 </v>
    </varray>
   </crystal>
   <varray name="positions" >
    <v>       0.50000000       0.90198221       0.55132248 </v>
    <v>       0.50000000       0.09801779       0.44867752 </v>
    <v>       0.00000001       0.40197787       0.44867752 </v>
    <v>      -0.00000001       0.59802213       0.55132248 </v>
   </varray>
  </structure>
  <varray name="forces" >
   <v>      -0.00000017      -0.01429999      -0.00043456 </v>
   <v>       0.00000017       0.01429999       0.00043456 </v>
   <v>      -0.00000026      -0.01430831       0.00043459 </v>
   <v>       0.00000026       0.01430831      -0.00043459 </v>
  </varray>
  <varray name="stress" >
   <v>     -23.06097296      -0.00000249       0.00000057 </v>
   <v>      -0.00000246      -7.92672982       0.00016407 </v>
   <v>       0.00000054       0.00016407      -0.07907621 </v>
  </varray>
  <energy>
   <i name="e_fr_energy">    -21.29887062 </i>
   <i name="e_wo_entrp">    -21.29887062 </i>
   <i name="e_0_energy">     -0.00000000 </i>
  </energy>
  <time name="totalsc">    8.69    8.70</time>
 </calculation>
 <calculation>
  <scstep>
   <time name="dav">    1.62    1.62</time>
   <time name="total">    1.73    1.73</time>
   <energy>
    <i name="alphaZ">      4.77741870 </i>
    <i name="ewald">   1675.22959268 </i>
    <i name="hartreedc">  -2279.02141123 </i>
    <i name="XCdc">     13.47502552 </i>
    <i name="pawpsdc">   1905.02521191 </i>
    <i name="pawaedc">  -1872.64752278 </i>
    <i name="eentropy">     -0.00000000 </i>
    <i name="bandstr">   -172.30498778 </i>
    <i name="atom">    704.16778566 </i>
    <i name="e_fr_energy">    -21.29888732 </i>
    <i name="e_wo_entrp">    -21.29888732 </i>
    <i name="e_0_energy">    -21.29888732 </i>
   </energy>
  </scstep>
  <scstep>
   <time name="dav">    1.80    1.80</time>
   <time name="total">    1.91    1.91</time>
   <energy>
    <i name="e_fr_energy">    -21.29889259 </i>
    <i name="e_wo_entrp">    -21.29889259 </i>
    <i name="e_0_energy">    -21.29889259 </i>
   </energy>
  </scstep>
  <scstep>
   <time name="dav">    1.17    1.17</time>
   <time name="total">    1.28    1.28</time>
   <energy>
    <i name="e_fr_energy">    -21.29889276 </i>
    <i name="e_wo_entrp">    -21.29889276 </i>
    <i name="e_0_energy">    -21.29889276 </i>
   </energy>
  </scstep>
  <scstep>
   <time name="dav">    1.13    1.13</time>
   <time name="total">    1.24    1.24</time>
   <energy>
    <i name="e_fr_energy">    -21.29889300 </i>
    <i name="e_wo_entrp">    -21.29889300 </i>
    <i name="e_0_energy">    -21.29889300 </i>
   </energy>
  </scstep>
  <scstep>
   <time name="dav">    1.12    1.12</time>
   <time name="total">    1.23    1.24</time>
   <energy>
    <i name="e_fr_energy">    -21.29889296 </i>
    <i name="e_wo_entrp">    -21.29889296 </i>
    <i name="e_0_energy">    -21.29889296 </i>
   </energy>
  </scstep>
  <scstep>
   <time name="dav">    1.11    1.11</time>
   <time name="total">    1.13    1.13</time>
   <energy>
    <i name="alphaZ">      4.77741870 </i>
    <i name="ewald">   1675.22959268 </i>
    <i name="hartreedc">  -2279.02109574 </i>
    <i name="XCdc">     13.47528618 </i>
    <i name="pawpsdc">   1906.86839069 </i>
    <i name="pawaedc">  -1874.49142541 </i>
    <i name="eentropy">     -0.00000000 </i>
    <i name="bandstr">   -172.30484571 </i>
    <i name="atom">    704.16778566 </i>
    <i name="e_fr_energy">    -21.29889295 </i>
    <i name="e_wo_entrp">    -21.29889295 </i>
    <i name="e_0_energy">    -21.29889295 </i>
   </energy>
  </scstep>
  <structure>
   <crystal>
    <varray name="basis" >
     <v>       3.45813700       0.00000000       0.00000000 </v>
     <v>       0.00000000       4.84901100      -0.00005300 </v>
     <v>       0.00000000       0.00000000      20.02439000 </v>
    </varray>
    <i name="volume">    335.77987185 </i>
    <varray name="rec_basis" >
     <v>       0.28917304       0.00000000       0.00000000 </v>
     <v>       0.00000000       0.20622762       0.00000000 </v>
     <v>       0.00000000       0.00000055       0.04993910 </v>
    </varray>
   </crystal>
   <varray name="positions" >
    <v>       0.50000000       0.90185759       0.55131278 </v>
    <v>       0.50000000       0.09814241       0.44868722 </v>
    <v>       0.00000000       0.40185318       0.44868722 </v>
    <v>      -0.00000000       0.59814682       0.55131278 </v>
   </varray>
  </structure>
  <varray name="forces" >
   <v>      -0.00000004      -0.00324103      -0.00008602 </v>
   <v>       0.00000004       0.00324103       0.00008602 </v>
   <v>      -0.00000008      -0.00324726       0.00008599 </v>
   <v>       0.00000008       0.00324726      -0.00008599 </v>
  </varray>
  <varray name="stress" >
   <v>     -23.02766011      -0.00000060       0.00000043 </v>
   <v>      -0.00000057      -7.77663061       0.00014292 </v>
   <v>       0.00000041       0.00014297      -0.07438514 </v>
  </varray>
  <energy>
   <i name="e_fr_energy">    -21.29889295 </i>
   <i name="e_wo_entrp">    -21.29889295 </i>
   <i name="e_0_energy">     -0.00000000 </i>
  </energy>
  <time name="totalsc">    9.29    9.31</time>
  <eigenvalues>
   <array>
    <dimension dim="1">band</dimension>
    <dimension dim="2">kpoint</dimension>
    <dimension dim="3">spin</dimension>
    <field>eigene</field>
    <field>occ</field>
    <set>
     <set comment="spin 1">
      <set comment="kpoint 1">
       <r>  -17.0845    1.0000 </r>
       <r>  -14.6947    1.0000 </r>
       <r>  -11.9708    1.0000 </r>
       <r>   -7.9061    1.0000 </r>
       <r>   -7.3900    1.0000 </r>
       <r>   -6.6679    1.0000 </r>
       <r>   -6.2469    1.0000 </r>
       <r>   -4.7180    1.0000 </r>
       <r>   -3.7958    1.0000 </r>
       <r>   -2.5856    1.0000 </r>
       <r>   -1.4856    0.0000 </r>
       <r>   -1.2450    0.0000 </r>
       <r>   -0.7474    0.0000 </r>
       <r>    0.0501    0.0000 </r>
       <r>    1.9479    0.0000 </r>
       <r>    2.1494    0.0000 </r>
      </set>
      <set comment="kpoint 2">
       <r>  -17.0606    1.0000 </r>
       <r>  -14.6693    1.0000 </r>
       <r>  -11.9840    1.0000 </r>
       <r>   -7.8896    1.0000 </r>
       <r>   -7.4264    1.0000 </r>
       <r>   -6.6474    1.0000 </r>
       <r>   -6.3823    1.0000 </r>
       <r>   -4.8555    1.0000 </r>
       <r>   -3.7959    1.0000 </r>
       <r>   -2.5958    1.0000 </r>
       <r>   -1.2778    0.0000 </r>
       <r>   -1.2245    0.0000 </r>
       <r>   -0.5398    0.0000 </r>
       <r>   -0.0691    0.0000 </r>
       <r>    1.9716    0.0000 </r>
       <r>    2.1775    0.0000 </r>
      </set>
      <set comment="kpoint 3">
       <r>  -16.9889    1.0000 </r>
       <r>  -14.5929    1.0000 </r>
       <r>  -12.0279    1.0000 </r>
       <r>   -7.8412    1.0000 </r>
       <r>   -7.5541    1.0000 </r>
       <r>   -6.7183    1.0000 </r>
       <r>   -6.5865    1.0000 </r>
       <r>   -5.1618    1.0000 </r>
       <r>   -3.8016    1.0000 </r>
       <r>   -2.6345    1.0000 </r>
       <r>   -1.1641    0.0000 </r>
       <r>   -0.7168    0.0000 </r>
       <r>   -0.3651    0.0000 </r>
       <r>   -0.0237    0.0000 </r>
       <r>    2.0281    0.0000 </r>
       <r>    2.2606    0.0000 </r>
      </set>
      <set comment="kpoint 4">
       <r>  -16.8700    1.0000 </r>
       <r>  -14.4658    1.0000 </r>
       <r>  -12.1138    1.0000 </r>
       <r>   -7.8157    1.0000 </r>
       <r>   -7.7636    1.0000 </r>
       <r>   -7.1250    1.0000 </r>
       <r>   -6.4866    1.0000 </r>
       <r>   -5.4514    1.0000 </r>
       <r>   -3.8282    1.0000 </r>
       <r>   -2.7118    1.0000 </r>
       <r>   -1.0672    0.0000 </r>
       <r>   -0.7182    0.0000 </r>
       <r>    0.0747    0.0000 </r>
       <r>    0.5678    0.0000 </r>
       <r>    1.8689    0.0000 </r>
       <r>    2.2721    0.0000 </r>
      </set>
      <set comment="kpoint 5">
       <r>  -16.7044    1.0000 </r>
       <r>  -14.2883    1.0000 </r>
       <r>  -12.2580    1.0000 </r>
       <r>   -8.2319    1.0000 </r>
       <r>   -7.6626    1.0000 </r>
       <r>   -7.5010    1.0000 </r>
       <r>   -6.3504    1.0000 </r>
       <r>   -5.6145    1.0000 </r>
       <r>   -3.8995    1.0000 </r>
       <r>   -2.8348    1.0000 </r>
       <r>   -1.0245    0.0000 </r>
       <r>   -0.9421    0.0000 </r>
       <r>    0.8512    0.0000 </r>
       <r>    0.9794    0.0000 </r>
       <r>    1.3959    0.0000 </r>
       <r>    2.4313    0.0000 </r>
      </set>
      <set comment="kpoint 6">
       <r>  -16.4932    1.0000 </r>
       <r>  -14.0608    1.0000 </r>
       <r>  -12.4752    1.0000 </r>
       <r>   -8.7661    1.0000 </r>
       <r>   -7.7855    1.0000 </r>
       <r>   -7.5477    1.0000 </r>
       <r>   -6.1826    1.0000 </r>
       <r>   -5.6457    1.0000 </r>
       <r>   -4.0348    1.0000 </r>
       <r>   -3.0083    1.0000 </r>
       <r>   -1.2124    0.0000 </r>
       <r>   -0.8099    0.0000 </r>
       <r>    0.5841    0.0000 </r>
       <r>    0.9245    0.0000 </r>
       <r>    1.7529    0.0000 </r>
       <r>    2.6734    0.0000 </r>
      </set>
      <set comment="kpoint 7">
       <r>  -16.2378    1.0000 </r>
       <r>  -13.7838    1.0000 </r>
       <r>  -12.7696    1.0000 </r>
       <r>   -9.3601    1.0000 </r>
       <r>   -7.9508    1.0000 </r>
       <r>   -7.4346    1.0000 </r>
       <r>   -5.9901    1.0000 </r>
       <r>   -5.5870    1.0000 </r>
       <r>   -4.2251    1.0000 </r>
       <r>   -3.2318    1.0000 </r>
       <r>   -1.2516    0.0000 </r>
       <r>   -0.7270    0.0000 </r>
       <r>    0.1025    0.0000 </r>
       <r>    0.5641    0.0000 </r>
       <r>    1.7579    0.0000 </r>
       <r>    2.8072    0.0000 </r>
      </set>
      <set comment="kpoint 8">
       <r>  -15.9404    1.0000 </r>
       <r>  -13.4581    1.0000 </r>
       <r>  -13.1311    1.0000 </r>
       <r>   -9.9706    1.0000 </r>
       <r>   -7.9967    1.0000 </r>
       <r>   -7.3472    1.0000 </r>
       <r>   -5.7840    1.0000 </r>
       <r>   -5.4809    1.0000 </r>
       <r>   -4.4236    1.0000 </r>
       <r>   -3.4961    1.0000 </r>
       <r>   -1.1524    0.0000 </r>
       <r>   -0.7955    0.0000 </r>
       <r>   -0.3880    0.0000 </r>
       <r>    0.4434    0.0000 </r>
       <r>    1.3908    0.0000 </r>
       <r>    2.6495    0.0000 </r>
      </set>
      <set comment="kpoint 9">
       <r>  -15.6037    1.0000 </r>
       <r>  -13.5389    1.0000 </r>
       <r>  -13.0847    1.0000 </r>
       <r>  -10.5721    1.0000 </r>
       <r>   -7.9420    1.0000 </r>
       <r>   -7.3156    1.0000 </r>
       <r>   -5.5811    1.0000 </r>
       <r>   -5.3642    1.0000 </r>
       <r>   -4.5661    1.0000 </r>
       <r>   -3.7835    1.0000 </r>
       <r>   -1.0067    0.0000 </r>
       <r>   -0.9427    0.0000 </r>
       <r>   -0.8150    0.0000 </r>
       <r>    0.5778    0.0000 </r>
       <r>    0.9668    0.0000 </r>
       <r>    2.3421    0.0000 </r>
      </set>
      <set comment="kpoint 10">
       <r>  -15.2317    1.0000 </r>
       <r>  -13.9704    1.0000 </r>
       <r>  -12.6649    1.0000 </r>
       <r>  -11.1495    1.0000 </r>
       <r>   -7.8152    1.0000 </r>
       <r>   -7.3629    1.0000 </r>
       <r>   -5.4048    1.0000 </r>
       <r>   -5.2723    1.0000 </r>
       <r>   -4.6009    1.0000 </r>
       <r>   -4.0696    1.0000 </r>
       <r>   -1.2212    0.0000 </r>
       <r>   -1.1357    0.0000 </r>
       <r>   -0.6497    0.0000 </r>
       <r>    0.5311    0.0000 </r>
       <r>    0.8535    0.0000 </r>
       <r>    1.9695    0.0000 </r>
      </set>
      <set comment="kpoint 11">
       <r>  -14.8297    1.0000 </r>
       <r>  -14.4057    1.0000 </r>
       <r>  -12.2005    1.0000 </r>
       <r>  -11.6942    1.0000 </r>
       <r>   -7.6498    1.0000 </r>
       <r>   -7.4850    1.0000 </r>
       <r>   -5.2832    1.0000 </r>
       <r>   -5.2382    1.0000 </r>
       <r>   -4.5134    1.0000 </r>
       <r>   -4.3244    1.0000 </r>
       <r>   -1.3407    0.0000 </r>
       <r>   -1.3165    0.0000 </r>
       <r>   -0.2947    0.0000 </r>
       <r>    0.1045    0.0000 </r>
       <r>    1.1983    0.0000 </r>
       <r>    1.5784    0.0000 </r>
      </set>
      <set comment="kpoint 12">
       <r>  -17.0656    1.0000 </r>
       <r>  -14.7344    1.0000 </r>
       <r>  -11.9461    1.0000 </r>
       <r>   -8.1351    1.0000 </r>
       <r>   -7.1894    1.0000 </r>
       <r>   -6.6060    1.0000 </r>
       <r>   -6.2322    1.0000 </r>
       <r>   -4.7360    1.0000 </r>
       <r>   -3.7462    1.0000 </r>
       <r>   -2.7272    1.0000 </r>
       <r>   -1.4696    0.0000 </r>
       <r>   -1.1086    0.0000 </r>
       <r>   -0.7957    0.0000 </r>
       <r>    0.0538    0.0000 </r>
       <r>    1.9923    0.0000 </r>
       <r>    2.1750    0.0000 </r>
      </set>
      <set comment="kpoint 13">
       <r>  -17.0417    1.0000 </r>
       <r>  -14.7093    1.0000 </r>
       <r>  -11.9584    1.0000 </r>
       <r>   -8.1295    1.0000 </r>
       <r>   -7.2141    1.0000 </r>
       <r>   -6.6082    1.0000 </r>
       <r>   -6.3450    1.0000 </r>
       <r>   -4.8762    1.0000 </r>
       <r>   -3.7486    1.0000 </r>
       <r>   -2.7341    1.0000 </r>
       <r>   -1.2623    0.0000 </r>
       <r>   -1.0918    0.0000 </r>
       <r>   -0.5890    0.0000 </r>
       <r>   -0.0580    0.0000 </r>
       <r>    2.0151    0.0000 </r>
       <r>    2.2033    0.0000 </r>
      </set>
      <set comment="kpoint 14">
       <r>  -16.9702    1.0000 </r>
       <r>  -14.6338    1.0000 </r>
       <r>  -11.9996    1.0000 </r>
       <r>   -8.1241    1.0000 </r>
       <r>   -7.2971    1.0000 </r>
       <r>   -6.7788    1.0000 </r>
       <r>   -6.4507    1.0000 </r>
       <r>   -5.1877    1.0000 </r>
       <r>   -3.7614    1.0000 </r>
       <r>   -2.7622    1.0000 </r>
       <r>   -1.0430    0.0000 </r>
       <r>   -0.7025    0.0000 </r>
       <r>   -0.3637    0.0000 </r>
       <r>   -0.0447    0.0000 </r>
       <r>    2.0630    0.0000 </r>
       <r>    2.3016    0.0000 </r>
      </set>
      <set comment="kpoint 15">
       <r>  -16.8513    1.0000 </r>
       <r>  -14.5085    1.0000 </r>
       <r>  -12.0810    1.0000 </r>
       <r>   -8.1724    1.0000 </r>
       <r>   -7.4339    1.0000 </r>
       <r>   -7.1606    1.0000 </r>
       <r>   -6.3790    1.0000 </r>
       <r>   -5.4795    1.0000 </r>
       <r>   -3.8006    1.0000 </r>
       <r>   -2.8226    1.0000 </r>
       <r>   -0.9625    0.0000 </r>
       <r>   -0.6872    0.0000 </r>
       <r>    0.0831    0.0000 </r>
       <r>    0.5505    0.0000 </r>
       <r>    1.7860    0.0000 </r>
       <r>    2.2577    0.0000 </r>
      </set>
      <set comment="kpoint 16">
       <r>  -16.6859    1.0000 </r>
       <r>  -14.3342    1.0000 </r>
       <r>  -12.2188    1.0000 </r>
       <r>   -8.4016    1.0000 </r>
       <r>   -7.5320    1.0000 </r>
       <r>   -7.5246    1.0000 </r>
       <r>   -6.2532    1.0000 </r>
       <r>   -5.6412    1.0000 </r>
       <r>   -3.8878    1.0000 </r>
       <r>   -2.9250    1.0000 </r>
       <r>   -0.9690    0.0000 </r>
       <r>   -0.8569    0.0000 </r>
       <r>    0.8728    0.0000 </r>
       <r>    0.9239    0.0000 </r>
       <r>    1.3575    0.0000 </r>
       <r>    2.4113    0.0000 </r>
      </set>
      <set comment="kpoint 17">
       <r>  -16.4750    1.0000 </r>
       <r>  -14.1126    1.0000 </r>
       <r>  -12.4268    1.0000 </r>
       <r>   -8.8501    1.0000 </r>
       <r>   -7.8151    1.0000 </r>
       <r>   -7.4995    1.0000 </r>
       <r>   -6.0946    1.0000 </r>
       <r>   -5.6735    1.0000 </r>
       <r>   -4.0358    1.0000 </r>
       <r>   -3.0768    1.0000 </r>
       <r>   -1.1342    0.0000 </r>
       <r>   -0.7457    0.0000 </r>
       <r>    0.6410    0.0000 </r>
       <r>    0.7621    0.0000 </r>
       <r>    1.8617    0.0000 </r>
       <r>    2.6149    0.0000 </r>
      </set>
      <set comment="kpoint 18">
       <r>  -16.2201    1.0000 </r>
       <r>  -13.8495    1.0000 </r>
       <r>  -12.7052    1.0000 </r>
       <r>   -9.4109    1.0000 </r>
       <r>   -7.9792    1.0000 </r>
       <r>   -7.4191    1.0000 </r>
       <r>   -5.9142    1.0000 </r>
       <r>   -5.6264    1.0000 </r>
       <r>   -4.2256    1.0000 </r>
       <r>   -3.2787    1.0000 </r>
       <r>   -1.1585    0.0000 </r>
       <r>   -0.6886    0.0000 </r>
       <r>    0.1710    0.0000 </r>
       <r>    0.4194    0.0000 </r>
       <r>    1.9200    0.0000 </r>
       <r>    2.7612    0.0000 </r>
      </set>
      <set comment="kpoint 19">
       <r>  -15.9233    1.0000 </r>
       <r>  -13.5777    1.0000 </r>
       <r>  -13.0117    1.0000 </r>
       <r>  -10.0066    1.0000 </r>
       <r>   -8.0227    1.0000 </r>
       <r>   -7.3415    1.0000 </r>
       <r>   -5.7263    1.0000 </r>
       <r>   -5.5490    1.0000 </r>
       <r>   -4.4018    1.0000 </r>
       <r>   -3.5205    1.0000 </r>
       <r>   -1.0588    0.0000 </r>
       <r>   -0.7936    0.0000 </r>
       <r>   -0.3126    0.0000 </r>
       <r>    0.3150    0.0000 </r>
       <r>    1.5897    0.0000 </r>
       <r>    2.6032    0.0000 </r>
      </set>
      <set comment="kpoint 20">
       <r>  -15.5876    1.0000 </r>
       <r>  -13.6021    1.0000 </r>
       <r>  -13.0218    1.0000 </r>
       <r>  -10.5997    1.0000 </r>
       <r>   -7.9641    1.0000 </r>
       <r>   -7.3114    1.0000 </r>
       <r>   -5.5519    1.0000 </r>
       <r>   -5.4763    1.0000 </r>
       <r>   -4.4994    1.0000 </r>
       <r>   -3.7811    1.0000 </r>
       <r>   -1.0286    0.0000 </r>
       <r>   -0.9261    0.0000 </r>
       <r>   -0.6685    0.0000 </r>
       <r>    0.4269    0.0000 </r>
       <r>    1.2187    0.0000 </r>
       <r>    2.3005    0.0000 </r>
      </set>
      <set comment="kpoint 21">
       <r>  -15.2171    1.0000 </r>
       <r>  -13.9780    1.0000 </r>
       <r>  -12.6584    1.0000 </r>
       <r>  -11.1713    1.0000 </r>
       <r>   -7.8318    1.0000 </r>
       <r>   -7.3604    1.0000 </r>
       <r>   -5.4199    1.0000 </r>
       <r>   -5.4164    1.0000 </r>
       <r>   -4.4910    1.0000 </r>
       <r>   -4.0317    1.0000 </r>
       <r>   -1.2465    0.0000 </r>
       <r>   -1.1339    0.0000 </r>
       <r>   -0.5050    0.0000 </r>
       <r>    0.4826    0.0000 </r>
       <r>    1.0110    0.0000 </r>
       <r>    1.9366    0.0000 </r>
      </set>
      <set comment="kpoint 22">
       <r>  -14.8181    1.0000 </r>
       <r>  -14.3996    1.0000 </r>
       <r>  -12.2091    1.0000 </r>
       <r>  -11.7104    1.0000 </r>
       <r>   -7.6597    1.0000 </r>
       <r>   -7.4878    1.0000 </r>
       <r>   -5.3678    1.0000 </r>
       <r>   -5.3579    1.0000 </r>
       <r>   -4.3984    1.0000 </r>
       <r>   -4.2430    1.0000 </r>
       <r>   -1.3578    0.0000 </r>
       <r>   -1.3207    0.0000 </r>
       <r>   -0.1712    0.0000 </r>
       <r>    0.1955    0.0000 </r>
       <r>    1.2152    0.0000 </r>
       <r>    1.5609    0.0000 </r>
      </set>
      <set comment="kpoint 23">
       <r>  -14.8181    1.0000 </r>
       <r>  -14.3996    1.0000 </r>
       <r>  -12.2091    1.0000 </r>
[...]
       <r>    2.7441    0.0000 </r>
       <r>    3.0266    0.0000 </r>
      </set>
      <set comment="kpoint 153">
       <r>  -15.4243    1.0000 </r>
       <r>  -15.2004    1.0000 </r>
       <r>  -11.2418    1.0000 </r>
       <r>  -10.9363    1.0000 </r>
       <r>   -7.9613    1.0000 </r>
       <r>   -7.8213    1.0000 </r>
       <r>   -5.4989    1.0000 </r>
       <r>   -5.3135    1.0000 </r>
       <r>   -4.0028    1.0000 </r>
       <r>   -3.9507    1.0000 </r>
       <r>   -0.2755    0.0000 </r>
       <r>    0.0029    0.0000 </r>
       <r>    0.7818    0.0000 </r>
       <r>    1.0225    0.0000 </r>
       <r>    2.5624    0.0000 </r>
       <r>    2.8402    0.0000 </r>
      </set>
      <set comment="kpoint 154">
       <r>  -15.6586    1.0000 </r>
       <r>  -15.4288    1.0000 </r>
       <r>  -11.0253    1.0000 </r>
       <r>  -10.7018    1.0000 </r>
       <r>   -7.7553    1.0000 </r>
       <r>   -7.6191    1.0000 </r>
       <r>   -5.3011    1.0000 </r>
       <r>   -5.0758    1.0000 </r>
       <r>   -4.0517    1.0000 </r>
       <r>   -4.0098    1.0000 </r>
       <r>   -0.2621    0.0000 </r>
       <r>   -0.0645    0.0000 </r>
       <r>    0.9246    0.0000 </r>
       <r>    1.2093    0.0000 </r>
       <r>    2.0488    0.0000 </r>
       <r>    2.2938    0.0000 </r>
      </set>
      <set comment="kpoint 155">
       <r>  -15.8566    1.0000 </r>
       <r>  -15.6235    1.0000 </r>
       <r>  -10.9030    1.0000 </r>
       <r>  -10.5732    1.0000 </r>
       <r>   -7.3826    1.0000 </r>
       <r>   -7.2421    1.0000 </r>
       <r>   -5.2263    1.0000 </r>
       <r>   -4.9513    1.0000 </r>
       <r>   -4.1019    1.0000 </r>
       <r>   -3.9392    1.0000 </r>
       <r>   -0.2128    0.0000 </r>
       <r>   -0.1150    0.0000 </r>
       <r>    0.9790    0.0000 </r>
       <r>    1.2967    0.0000 </r>
       <r>    1.3983    0.0000 </r>
       <r>    1.5834    0.0000 </r>
      </set>
      <set comment="kpoint 156">
       <r>  -16.0139    1.0000 </r>
       <r>  -15.7790    1.0000 </r>
       <r>  -10.8525    1.0000 </r>
       <r>  -10.5231    1.0000 </r>
       <r>   -6.8875    1.0000 </r>
       <r>   -6.7381    1.0000 </r>
       <r>   -5.2312    1.0000 </r>
       <r>   -4.9236    1.0000 </r>
       <r>   -4.1314    1.0000 </r>
       <r>   -3.8596    1.0000 </r>
       <r>   -0.2453    0.0000 </r>
       <r>   -0.2442    0.0000 </r>
       <r>    0.7917    0.0000 </r>
       <r>    0.8124    0.0000 </r>
       <r>    1.1793    0.0000 </r>
       <r>    1.3741    0.0000 </r>
      </set>
      <set comment="kpoint 157">
       <r>  -16.1277    1.0000 </r>
       <r>  -15.8918    1.0000 </r>
       <r>  -10.8409    1.0000 </r>
       <r>  -10.5141    1.0000 </r>
       <r>   -6.3392    1.0000 </r>
       <r>   -6.1828    1.0000 </r>
       <r>   -5.2642    1.0000 </r>
       <r>   -4.9428    1.0000 </r>
       <r>   -4.1995    1.0000 </r>
       <r>   -3.8444    1.0000 </r>
       <r>   -0.6124    0.0000 </r>
       <r>   -0.5679    0.0000 </r>
       <r>    0.5881    0.0000 </r>
       <r>    0.7124    0.0000 </r>
       <r>    1.1121    0.0000 </r>
       <r>    1.3757    0.0000 </r>
      </set>
      <set comment="kpoint 158">
       <r>  -16.1966    1.0000 </r>
       <r>  -15.9601    1.0000 </r>
       <r>  -10.8432    1.0000 </r>
       <r>  -10.5185    1.0000 </r>
       <r>   -5.8415    1.0000 </r>
       <r>   -5.6865    1.0000 </r>
       <r>   -5.2991    1.0000 </r>
       <r>   -4.9719    1.0000 </r>
       <r>   -4.3316    1.0000 </r>
       <r>   -3.9182    1.0000 </r>
       <r>   -1.0038    0.0000 </r>
       <r>   -0.9488    0.0000 </r>
       <r>    0.6051    0.0000 </r>
       <r>    0.8132    0.0000 </r>
       <r>    1.0775    0.0000 </r>
       <r>    1.3645    0.0000 </r>
      </set>
     </set>
    </set>
   </array>
  </eigenvalues>
  <separator name="orbital magnetization" >
   <v name="MAGDIPOLOUT">      0.00000000      0.00000000      0.00000000</v>
  </separator>
  <dos>
   <i name="efermi">     -2.47231835 </i>
   <total>
    <array>
     <dimension dim="1">gridpoints</dimension>
     <dimension dim="2">spin</dimension>
     <field>energy</field>
     <field>total</field>
     <field>integrated</field>
     <set>
      <set comment="spin 1">
       <r>   -18.0986     0.0000     0.0000 </r>
       <r>   -18.0242     0.0000     0.0000 </r>
       <r>   -17.9499     0.0000     0.0000 </r>
       <r>   -17.8755     0.0000     0.0000 </r>
       <r>   -17.8011     0.0000     0.0000 </r>
       <r>   -17.7268     0.0000     0.0000 </r>
       <r>   -17.6524     0.0000     0.0000 </r>
       <r>   -17.5780     0.0000     0.0000 </r>
       <r>   -17.5037     0.0000     0.0000 </r>
       <r>   -17.4293     0.0000     0.0000 </r>
       <r>   -17.3549     0.0000     0.0000 </r>
       <r>   -17.2806     0.0000     0.0000 </r>
       <r>   -17.2062     0.0000     0.0000 </r>
       <r>   -17.1318     0.0000     0.0000 </r>
       <r>   -17.0575     0.3515     0.0261 </r>
       <r>   -16.9831     0.9500     0.0968 </r>
       <r>   -16.9087     0.8769     0.1620 </r>
       <r>   -16.8344     1.0038     0.2366 </r>
       <r>   -16.7600     1.0393     0.3139 </r>
       <r>   -16.6856     1.0156     0.3895 </r>
       <r>   -16.6113     0.8778     0.4547 </r>
       <r>   -16.5369     0.9672     0.5267 </r>
       <r>   -16.4625     0.7973     0.5860 </r>
       <r>   -16.3882     1.5631     0.7022 </r>
       <r>   -16.3138     0.6735     0.7523 </r>
       <r>   -16.2394     0.5474     0.7930 </r>
       <r>   -16.1651     1.7317     0.9218 </r>
       <r>   -16.0907     0.5924     0.9658 </r>
       <r>   -16.0163     1.0762     1.0459 </r>
       <r>   -15.9420     1.0852     1.1266 </r>
       <r>   -15.8676     1.2662     1.2207 </r>
       <r>   -15.7932     1.0389     1.2980 </r>
       <r>   -15.7189     0.8063     1.3580 </r>
       <r>   -15.6445     1.1098     1.4405 </r>
       <r>   -15.5701     1.3444     1.5405 </r>
       <r>   -15.4958     1.0815     1.6209 </r>
       <r>   -15.4214     1.2695     1.7153 </r>
       <r>   -15.3470     1.3893     1.8186 </r>
       <r>   -15.2727     0.4454     1.8517 </r>
       <r>   -15.1983     1.6496     1.9744 </r>
       <r>   -15.1239     1.7220     2.1025 </r>
       <r>   -15.0496     0.8149     2.1631 </r>
       <r>   -14.9752     1.2729     2.2577 </r>
       <r>   -14.9008     1.4599     2.3663 </r>
       <r>   -14.8265     1.4294     2.4726 </r>
       <r>   -14.7521     1.6091     2.5923 </r>
       <r>   -14.6777     2.4643     2.7755 </r>
       <r>   -14.6034     1.9463     2.9203 </r>
       <r>   -14.5290     0.5503     2.9612 </r>
       <r>   -14.4546     2.4562     3.1438 </r>
       <r>   -14.3803     1.5083     3.2560 </r>
       <r>   -14.3059     2.5429     3.4451 </r>
       <r>   -14.2315     1.3012     3.5419 </r>
       <r>   -14.1572     0.5275     3.5811 </r>
       <r>   -14.0828     0.9891     3.6547 </r>
       <r>   -14.0084     1.1263     3.7384 </r>
       <r>   -13.9341     0.9782     3.8112 </r>
       <r>   -13.8597     0.4001     3.8409 </r>
       <r>   -13.7853     0.5304     3.8804 </r>
       <r>   -13.7110     0.5796     3.9235 </r>
       <r>   -13.6366     0.0072     3.9240 </r>
       <r>   -13.5622     0.6416     3.9717 </r>
       <r>   -13.4879     0.2126     3.9875 </r>
       <r>   -13.4135     0.1676     4.0000 </r>
       <r>   -13.3391     0.0001     4.0000 </r>
       <r>   -13.2648     0.0000     4.0000 </r>
       <r>   -13.1904     0.0000     4.0000 </r>
       <r>   -13.1160     0.1484     4.0110 </r>
       <r>   -13.0417     0.2261     4.0279 </r>
       <r>   -12.9673     0.6497     4.0762 </r>
       <r>   -12.8929     0.0787     4.0820 </r>
       <r>   -12.8186     0.3054     4.1047 </r>
       <r>   -12.7442     0.4683     4.1396 </r>
       <r>   -12.6698     0.8192     4.2005 </r>
       <r>   -12.5955     0.9071     4.2679 </r>
       <r>   -12.5211     1.2256     4.3591 </r>
       <r>   -12.4467     0.5331     4.3987 </r>
       <r>   -12.3724     0.6166     4.4446 </r>
       <r>   -12.2980     2.4500     4.6268 </r>
       <r>   -12.2236     1.8466     4.7641 </r>
       <r>   -12.1493     1.1579     4.8502 </r>
       <r>   -12.0749     2.1872     5.0129 </r>
       <r>   -12.0005     1.1763     5.1003 </r>
       <r>   -11.9262     2.0742     5.2546 </r>
       <r>   -11.8518     1.6866     5.3800 </r>
       <r>   -11.7774     1.9798     5.5273 </r>
       <r>   -11.7031     1.5084     5.6394 </r>
       <r>   -11.6287     1.1025     5.7214 </r>
       <r>   -11.5543     1.4472     5.8290 </r>
       <r>   -11.4800     0.9287     5.8981 </r>
       <r>   -11.4056     0.8442     5.9609 </r>
       <r>   -11.3312     1.4469     6.0685 </r>
       <r>   -11.2569     0.5849     6.1120 </r>
       <r>   -11.1825     1.2955     6.2083 </r>
       <r>   -11.1081     1.7733     6.3402 </r>
       <r>   -11.0338     0.1298     6.3499 </r>
       <r>   -10.9594     0.9227     6.4185 </r>
       <r>   -10.8850     0.6609     6.4676 </r>
       <r>   -10.8107     1.3869     6.5708 </r>
       <r>   -10.7363     0.2689     6.5908 </r>
       <r>   -10.6619     0.9063     6.6582 </r>
       <r>   -10.5876     0.7204     6.7117 </r>
       <r>   -10.5132     1.2932     6.8079 </r>
       <r>   -10.4388     0.7473     6.8635 </r>
       <r>   -10.3645     0.1773     6.8767 </r>
       <r>   -10.2901     0.5457     6.9172 </r>
       <r>   -10.2157     0.5275     6.9565 </r>
       <r>   -10.1414     1.2186     7.0471 </r>
       <r>   -10.0670     0.4353     7.0795 </r>
       <r>    -9.9926     0.9695     7.1516 </r>
       <r>    -9.9183     0.2244     7.1683 </r>
       <r>    -9.8439     0.2536     7.1871 </r>
       <r>    -9.7695     1.0999     7.2689 </r>
       <r>    -9.6952     0.5734     7.3116 </r>
       <r>    -9.6208     0.2929     7.3333 </r>
       <r>    -9.5464     0.2409     7.3512 </r>
       <r>    -9.4721     0.2935     7.3731 </r>
       <r>    -9.3977     0.5394     7.4132 </r>
       <r>    -9.3233     1.6520     7.5360 </r>
       <r>    -9.2490     0.0063     7.5365 </r>
       <r>    -9.1746     0.0000     7.5365 </r>
       <r>    -9.1002     0.1199     7.5454 </r>
       <r>    -9.0259     0.5625     7.5873 </r>
       <r>    -8.9515     0.7024     7.6395 </r>
       <r>    -8.8771     0.5031     7.6769 </r>
       <r>    -8.8028     0.3326     7.7016 </r>
       <r>    -8.7284     0.3301     7.7262 </r>
       <r>    -8.6540     0.1815     7.7397 </r>
       <r>    -8.5797     0.1025     7.7473 </r>
       <r>    -8.5053     1.0468     7.8252 </r>
       <r>    -8.4309     0.0524     7.8291 </r>
       <r>    -8.3566     0.3348     7.8539 </r>
       <r>    -8.2822     0.0003     7.8540 </r>
       <r>    -8.2078     0.1729     7.8668 </r>
       <r>    -8.1335     1.9689     8.0133 </r>
       <r>    -8.0591     3.1392     8.2467 </r>
       <r>    -7.9847     2.1044     8.4032 </r>
       <r>    -7.9104     2.8198     8.6129 </r>
       <r>    -7.8360     2.7832     8.8199 </r>
       <r>    -7.7616     1.9886     8.9678 </r>
       <r>    -7.6873     1.4931     9.0788 </r>
       <r>    -7.6129     3.1371     9.3121 </r>
       <r>    -7.5385     2.0127     9.4618 </r>
       <r>    -7.4642     3.8898     9.7511 </r>
       <r>    -7.3898     3.5652    10.0162 </r>
       <r>    -7.3154     5.5739    10.4307 </r>
       <r>    -7.2411     3.0656    10.6587 </r>
       <r>    -7.1667     1.6675    10.7827 </r>
       <r>    -7.0923     1.5920    10.9011 </r>
       <r>    -7.0180     0.5071    10.9388 </r>
       <r>    -6.9436     1.0124    11.0141 </r>
       <r>    -6.8692     0.7722    11.0715 </r>
       <r>    -6.7949     1.2340    11.1633 </r>
       <r>    -6.7205     1.4536    11.2714 </r>
       <r>    -6.6461     1.1143    11.3542 </r>
       <r>    -6.5718     2.4744    11.5383 </r>
       <r>    -6.4974     2.2384    11.7047 </r>
       <r>    -6.4230     1.0257    11.7810 </r>
       <r>    -6.3487     1.8341    11.9174 </r>
       <r>    -6.2743     2.2167    12.0822 </r>
       <r>    -6.1999     2.2517    12.2497 </r>
       <r>    -6.1256     2.4974    12.4354 </r>
       <r>    -6.0512     1.2161    12.5258 </r>
       <r>    -5.9768     3.3821    12.7774 </r>
       <r>    -5.9025     1.9828    12.9248 </r>
       <r>    -5.8281     1.9438    13.0694 </r>
       <r>    -5.7537     3.8111    13.3528 </r>
       <r>    -5.6794     4.8234    13.7115 </r>
       <r>    -5.6050     4.3571    14.0355 </r>
       <r>    -5.5306     3.1316    14.2684 </r>
       <r>    -5.4563     5.0239    14.6420 </r>
       <r>    -5.3819     2.2928    14.8125 </r>
       <r>    -5.3075     2.9204    15.0297 </r>
       <r>    -5.2332     3.0712    15.2581 </r>
       <r>    -5.1588     1.9978    15.4067 </r>
       <r>    -5.0844     0.9873    15.4801 </r>
       <r>    -5.0101     0.9379    15.5498 </r>
       <r>    -4.9357     2.1470    15.7095 </r>
       <r>    -4.8613     1.9234    15.8525 </r>
       <r>    -4.7870     0.3823    15.8810 </r>
       <r>    -4.7126     0.8788    15.9463 </r>
       <r>    -4.6382     0.6182    15.9923 </r>
       <r>    -4.5639     0.9845    16.0655 </r>
       <r>    -4.4895     0.9215    16.1340 </r>
       <r>    -4.4151     0.7037    16.1864 </r>
       <r>    -4.3408     1.6218    16.3070 </r>
       <r>    -4.2664     1.2599    16.4007 </r>
       <r>    -4.1920     3.6580    16.6727 </r>
       <r>    -4.1177     2.4992    16.8586 </r>
       <r>    -4.0433     2.8129    17.0677 </r>
       <r>    -3.9689     4.6090    17.4105 </r>
       <r>    -3.8946     2.5307    17.5987 </r>
       <r>    -3.8202     4.4059    17.9263 </r>
       <r>    -3.7458     5.6158    18.3440 </r>
       <r>    -3.6715     3.3554    18.5935 </r>
       <r>    -3.5971     4.1052    18.8988 </r>
       <r>    -3.5227     3.9526    19.1927 </r>
       <r>    -3.4484     2.7758    19.3992 </r>
       <r>    -3.3740     2.2561    19.5669 </r>
       <r>    -3.2996     0.6385    19.6144 </r>
       <r>    -3.2253     0.7728    19.6719 </r>
       <r>    -3.1509     0.2773    19.6925 </r>
       <r>    -3.0765     0.6733    19.7426 </r>
       <r>    -3.0022     1.0994    19.8243 </r>
       <r>    -2.9278     0.2004    19.8392 </r>
       <r>    -2.8534     0.2190    19.8555 </r>
       <r>    -2.7791     0.5311    19.8950 </r>
       <r>    -2.7047     0.9162    19.9632 </r>
       <r>    -2.6303     0.1748    19.9762 </r>
       <r>    -2.5560     0.3187    19.9999 </r>
       <r>    -2.4816     0.0020    20.0000 </r>
       <r>    -2.4072     0.0000    20.0000 </r>
       <r>    -2.3329     0.0000    20.0000 </r>
       <r>    -2.2585     0.0000    20.0000 </r>
       <r>    -2.1841     0.0000    20.0000 </r>
       <r>    -2.1098     0.0000    20.0000 </r>
       <r>    -2.0354     0.0000    20.0000 </r>
       <r>    -1.9610     0.0000    20.0000 </r>
       <r>    -1.8867     0.0000    20.0000 </r>
       <r>    -1.8123     0.0000    20.0000 </r>
       <r>    -1.7379     0.0000    20.0000 </r>
       <r>    -1.6636     0.0000    20.0000 </r>
       <r>    -1.5892     0.0000    20.0000 </r>
       <r>    -1.5148     0.0018    20.0001 </r>
       <r>    -1.4405     0.2664    20.0199 </r>
       <r>    -1.3661     0.3940    20.0492 </r>
       <r>    -1.2917     1.6903    20.1749 </r>
       <r>    -1.2174     3.2142    20.4140 </r>
       <r>    -1.1430     1.8612    20.5524 </r>
       <r>    -1.0687     4.1908    20.8640 </r>
       <r>    -0.9943     3.2997    21.1094 </r>
       <r>    -0.9199     2.4319    21.2903 </r>
       <r>    -0.8456     2.4959    21.4759 </r>
       <r>    -0.7712     4.2730    21.7937 </r>
       <r>    -0.6968     2.5599    21.9840 </r>
       <r>    -0.6225     2.4308    22.1648 </r>
       <r>    -0.5481     5.1253    22.5459 </r>
       <r>    -0.4737     3.9460    22.8394 </r>
       <r>    -0.3994     1.4525    22.9474 </r>
       <r>    -0.3250     4.1146    23.2534 </r>
       <r>    -0.2506     2.7145    23.4553 </r>
       <r>    -0.1763     3.3263    23.7026 </r>
       <r>    -0.1019     3.1086    23.9338 </r>
       <r>    -0.0275     4.4998    24.2684 </r>
       <r>     0.0468     4.2635    24.5855 </r>
       <r>     0.1212     4.5406    24.9232 </r>
       <r>     0.1956     4.4440    25.2537 </r>
       <r>     0.2699     3.8806    25.5423 </r>
       <r>     0.3443     3.0660    25.7703 </r>
       <r>     0.4187     3.7594    26.0498 </r>
       <r>     0.4930     3.7643    26.3298 </r>
       <r>     0.5674     2.2627    26.4980 </r>
       <r>     0.6418     4.4227    26.8269 </r>
       <r>     0.7161     1.9122    26.9691 </r>
       <r>     0.7905     3.3151    27.2157 </r>
       <r>     0.8649     3.6123    27.4843 </r>
       <r>     0.9392     2.9569    27.7042 </r>
       <r>     1.0136     2.1177    27.8617 </r>
       <r>     1.0880     1.9717    28.0083 </r>
       <r>     1.1623     2.0247    28.1589 </r>
       <r>     1.2367     1.9041    28.3005 </r>
       <r>     1.3111     1.0377    28.3777 </r>
       <r>     1.3854     3.5339    28.6405 </r>
       <r>     1.4598     1.1849    28.7286 </r>
       <r>     1.5342     0.6595    28.7776 </r>
       <r>     1.6085     2.8641    28.9906 </r>
       <r>     1.6829     2.0143    29.1404 </r>
       <r>     1.7573     1.1626    29.2269 </r>
       <r>     1.8316     1.1759    29.3143 </r>
       <r>     1.9060     2.7436    29.5183 </r>
       <r>     1.9804     2.3093    29.6901 </r>
       <r>     2.0547     3.2693    29.9332 </r>
       <r>     2.1291     1.7417    30.0627 </r>
       <r>     2.2035     3.8517    30.3492 </r>
       <r>     2.2778     3.5629    30.6141 </r>
       <r>     2.3522     3.4376    30.8698 </r>
       <r>     2.4266     3.4292    31.1248 </r>
       <r>     2.5009     2.4679    31.3083 </r>
       <r>     2.5753     1.0053    31.3831 </r>
       <r>     2.6497     1.8249    31.5188 </r>
       <r>     2.7240     0.9353    31.5883 </r>
       <r>     2.7984     1.6396    31.7103 </r>
       <r>     2.8728     0.8863    31.7762 </r>
       <r>     2.9471     0.4539    31.8099 </r>
       <r>     3.0215     1.3046    31.9070 </r>
       <r>     3.0959     0.4328    31.9391 </r>
       <r>     3.1702     0.4852    31.9752 </r>
       <r>     3.2446     0.3329    32.0000 </r>
       <r>     3.3190     0.0001    32.0000 </r>
       <r>     3.3933     0.0000    32.0000 </r>
       <r>     3.4677     0.0000    32.0000 </r>
       <r>     3.5421     0.0000    32.0000 </r>
       <r>     3.6164     0.0000    32.0000 </r>
       <r>     3.6908     0.0000    32.0000 </r>
       <r>     3.7652     0.0000    32.0000 </r>
       <r>     3.8395     0.0000    32.0000 </r>
       <r>     3.9139     0.0000    32.0000 </r>
       <r>     3.9883     0.0000    32.0000 </r>
       <r>     4.0626     0.0000    32.0000 </r>
       <r>     4.1370     0.0000    32.0000 </r>
       <r>     4.2114     0.0000    32.0000 </r>
      </set>
     </set>
    </array>
   </total>
  </dos>
 </calculation>
 <structure name="finalpos" >
  <crystal>
   <varray name="basis" >
    <v>       3.45813700       0.00000000       0.00000000 </v>
    <v>       0.00000000       4.84901100      -0.00005300 </v>
    <v>       0.00000000       0.00000000      20.02439000 </v>
   </varray>
   <i name="volume">    335.77987185 </i>
   <varray name="rec_basis" >
    <v>       0.28917304       0.00000000       0.00000000 </v>
    <v>       0.00000000       0.20622762       0.00000000 </v>
    <v>       0.00000000       0.00000055       0.04993910 </v>
   </varray>
  </crystal>
  <varray name="positions" >
   <v>       0.50000000       0.90185759       0.55131278 </v>
   <v>       0.50000000       0.09814241       0.44868722 </v>
   <v>       0.00000000       0.40185318       0.44868722 </v>
   <v>      -0.00000000       0.59814682       0.55131278 </v>
  </varray>
 </structure>
</modeling>
