<?xml version="1.0" encoding="ISO-8859-1"?>
<modeling>
 <generator>
  <i name="program" type="string">vasp </i>
  <i name="version" type="string">5.4.1  </i>
  <i name="subversion" type="string">24Jun15 (build Nov 20 2020 10:29:34) complex                          parallel </i>
  <i name="platform" type="string">IFC91_ompi </i>
  <i name="date" type="string">2021 09 09 </i>
  <i name="time" type="string">14:59:00 </i>
 </generator>
 <incar>
  <i type="string" name="PREC">a</i>
  <i type="string" name="ALGO"> Normal</i>
  <i type="int" name="ISPIN">     1</i>
  <i type="int" name="ICHARG">     2</i>
  <i type="int" name="NELM">   250</i>
  <i type="int" name="NELMDL">    -5</i>
  <i type="int" name="NELMIN">     6</i>
  <i type="int" name="IBRION">     2</i>
  <i name="EDIFF">      0.00001000</i>
  <i name="EDIFFG">     -0.01000000</i>
  <i type="int" name="NSW">   200</i>
  <i type="int" name="ISIF">     2</i>
  <i name="ENCUT">    520.00000000</i>
  <i name="POTIM">      0.30000000</i>
  <i type="logical" name="LREAL"> F  </i>
  <i type="int" name="ISMEAR">     0</i>
  <i name="SIGMA">      0.02000000</i>
  <i type="logical" name="LWAVE"> F  </i>
  <i type="logical" name="LCHARG"> F  </i>
  <i type="logical" name="LAECHG"> F  </i>
  <v type="int" name="KPOINT_BSE">    -1     0     0     0</v>
  <i type="int" name="NELM">   250</i>
 </incar>
 <kpoints>
  <generation param="Gamma">
   <v type="int" name="divisions">      15       13        1 </v>
   <v name="usershift">      0.00000000       0.00000000       0.00000000 </v>
   <v name="genvec1">      0.06666667       0.00000000       0.00000000 </v>
   <v name="genvec2">      0.00000000       0.07692308       0.00000000 </v>
   <v name="genvec3">      0.00000000       0.00000000       1.00000000 </v>
   <v name="shift">      0.00000000       0.00000000       0.00000000 </v>
  </generation>
  <varray name="kpointlist" >
   <v>       0.00000000       0.00000000       0.00000000 </v>
   <v>       0.06666667       0.00000000       0.00000000 </v>
   <v>       0.13333333       0.00000000       0.00000000 </v>
   <v>       0.20000000       0.00000000       0.00000000 </v>
   <v>       0.26666667       0.00000000       0.00000000 </v>
   <v>       0.33333333       0.00000000       0.00000000 </v>
   <v>       0.40000000       0.00000000       0.00000000 </v>
   <v>       0.46666667       0.00000000       0.00000000 </v>
   <v>       0.00000000       0.07692308       0.00000000 </v>
   <v>       0.06666667       0.07692308       0.00000000 </v>
   <v>       0.13333333       0.07692308       0.00000000 </v>
   <v>       0.20000000       0.07692308       0.00000000 </v>
   <v>       0.26666667       0.07692308       0.00000000 </v>
   <v>       0.33333333       0.07692308       0.00000000 </v>
   <v>       0.40000000       0.07692308       0.00000000 </v>
   <v>       0.46666667       0.07692308       0.00000000 </v>
   <v>       0.00000000       0.15384615       0.00000000 </v>
   <v>       0.06666667       0.15384615       0.00000000 </v>
   <v>       0.13333333       0.15384615       0.00000000 </v>
   <v>       0.20000000       0.15384615       0.00000000 </v>
   <v>       0.26666667       0.15384615       0.00000000 </v>
   <v>       0.33333333       0.15384615       0.00000000 </v>
   <v>       0.40000000       0.15384615       0.00000000 </v>
   <v>       0.46666667       0.15384615       0.00000000 </v>
   <v>       0.00000000       0.23076923       0.00000000 </v>
   <v>       0.06666667       0.23076923       0.00000000 </v>
   <v>       0.13333333       0.23076923       0.00000000 </v>
   <v>       0.20000000       0.23076923       0.00000000 </v>
   <v>       0.26666667       0.23076923       0.00000000 </v>
   <v>       0.33333333       0.23076923       0.00000000 </v>
   <v>       0.40000000       0.23076923       0.00000000 </v>
   <v>       0.46666667       0.23076923       0.00000000 </v>
   <v>       0.00000000       0.30769231       0.00000000 </v>
   <v>       0.06666667       0.30769231       0.00000000 </v>
   <v>       0.13333333       0.30769231       0.00000000 </v>
   <v>       0.20000000       0.30769231       0.00000000 </v>
   <v>       0.26666667       0.30769231       0.00000000 </v>
   <v>       0.33333333       0.30769231       0.00000000 </v>
   <v>       0.40000000       0.30769231       0.00000000 </v>
   <v>       0.46666667       0.30769231       0.00000000 </v>
   <v>       0.00000000       0.38461538       0.00000000 </v>
   <v>       0.06666667       0.38461538       0.00000000 </v>
   <v>       0.13333333       0.38461538       0.00000000 </v>
   <v>       0.20000000       0.38461538       0.00000000 </v>
   <v>       0.26666667       0.38461538       0.00000000 </v>
   <v>       0.33333333       0.38461538       0.00000000 </v>
   <v>       0.40000000       0.38461538       0.00000000 </v>
   <v>       0.46666667       0.38461538       0.00000000 </v>
   <v>       0.00000000       0.46153846       0.00000000 </v>
   <v>       0.06666667       0.46153846       0.00000000 </v>
   <v>       0.13333333       0.46153846       0.00000000 </v>
   <v>       0.20000000       0.46153846       0.00000000 </v>
   <v>       0.26666667       0.46153846       0.00000000 </v>
   <v>       0.33333333       0.46153846       0.00000000 </v>
   <v>       0.40000000       0.46153846       0.00000000 </v>
   <v>       0.46666667       0.46153846       0.00000000 </v>
  </varray>
  <varray name="weights" >
   <v>       0.00512821 </v>
   <v>       0.01025641 </v>
   <v>       0.01025641 </v>
   <v>       0.01025641 </v>
   <v>       0.01025641 </v>
   <v>       0.01025641 </v>
   <v>       0.01025641 </v>
   <v>       0.01025641 </v>
   <v>       0.01025641 </v>
   <v>       0.02051282 </v>
   <v>       0.02051282 </v>
   <v>       0.02051282 </v>
   <v>       0.02051282 </v>
   <v>       0.02051282 </v>
   <v>       0.02051282 </v>
   <v>       0.02051282 </v>
   <v>       0.01025641 </v>
   <v>       0.02051282 </v>
   <v>       0.02051282 </v>
   <v>       0.02051282 </v>
   <v>       0.02051282 </v>
   <v>       0.02051282 </v>
   <v>       0.02051282 </v>
   <v>       0.02051282 </v>
   <v>       0.01025641 </v>
   <v>       0.02051282 </v>
   <v>       0.02051282 </v>
   <v>       0.02051282 </v>
   <v>       0.02051282 </v>
   <v>       0.02051282 </v>
   <v>       0.02051282 </v>
   <v>       0.02051282 </v>
   <v>       0.01025641 </v>
   <v>       0.02051282 </v>
   <v>       0.02051282 </v>
   <v>       0.02051282 </v>
   <v>       0.02051282 </v>
   <v>       0.02051282 </v>
   <v>       0.02051282 </v>
   <v>       0.02051282 </v>
   <v>       0.01025641 </v>
   <v>       0.02051282 </v>
   <v>       0.02051282 </v>
   <v>       0.02051282 </v>
   <v>       0.02051282 </v>
   <v>       0.02051282 </v>
   <v>       0.02051282 </v>
   <v>       0.02051282 </v>
   <v>       0.01025641 </v>
   <v>       0.02051282 </v>
   <v>       0.02051282 </v>
   <v>       0.02051282 </v>
   <v>       0.02051282 </v>
   <v>       0.02051282 </v>
   <v>       0.02051282 </v>
   <v>       0.02051282 </v>
  </varray>
 </kpoints>
 <parameters>
  <separator name="general" >
   <i type="string" name="SYSTEM">unknown system</i>
   <i type="logical" name="LCOMPAT"> F  </i>
  </separator>
  <separator name="electronic" >
   <i type="string" name="PREC">a</i>
   <i name="ENMAX">    520.00000000</i>
   <i name="ENAUG">    531.35600000</i>
   <i name="EDIFF">      0.00001000</i>
   <i type="int" name="IALGO">    38</i>
   <i type="int" name="IWAVPR">    11</i>
   <i type="int" name="NBANDS">    32</i>
   <i name="NELECT">     52.00000000</i>
   <i type="int" name="TURBO">     0</i>
   <i type="int" name="IRESTART">     0</i>
   <i type="int" name="NREBOOT">     0</i>
   <i type="int" name="NMIN">     0</i>
   <i name="EREF">      0.00000000</i>
   <separator name="electronic smearing" >
    <i type="int" name="ISMEAR">     0</i>
    <i name="SIGMA">      0.02000000</i>
    <i name="KSPACING">      0.50000000</i>
    <i type="logical" name="KGAMMA"> T  </i>
   </separator>
   <separator name="electronic projectors" >
    <i type="logical" name="LREAL"> F  </i>
    <v name="ROPT">      0.00000000      0.00000000</v>
    <i type="int" name="LMAXPAW">  -100</i>
    <i type="int" name="LMAXMIX">     2</i>
    <i type="logical" name="NLSPLINE"> F  </i>
   </separator>
   <separator name="electronic startup" >
    <i type="int" name="ISTART">     0</i>
    <i type="int" name="ICHARG">     2</i>
    <i type="int" name="INIWAV">     1</i>
   </separator>
   <separator name="electronic spin" >
    <i type="int" name="ISPIN">     1</i>
    <i type="logical" name="LNONCOLLINEAR"> F  </i>
    <v name="MAGMOM">      1.00000000      1.00000000      1.00000000      1.00000000      1.00000000      1.00000000</v>
    <i name="NUPDOWN">     -1.00000000</i>
    <i type="logical" name="LSORBIT"> F  </i>
    <v name="SAXIS">      0.00000000      0.00000000      1.00000000</v>
    <i type="logical" name="LSPIRAL"> F  </i>
    <v name="QSPIRAL">      0.00000000      0.00000000      0.00000000</v>
    <i type="logical" name="LZEROZ"> F  </i>
   </separator>
   <separator name="electronic exchange-correlation" >
    <i type="logical" name="LASPH"> F  </i>
    <i type="logical" name="LMETAGGA"> F  </i>
   </separator>
   <separator name="electronic convergence" >
    <i type="int" name="NELM">   250</i>
    <i type="int" name="NELMDL">    -5</i>
    <i type="int" name="NELMIN">     6</i>
    <i name="ENINI">    520.00000000</i>
    <separator name="electronic convergence detail" >
     <i type="logical" name="LDIAG"> T  </i>
     <i type="logical" name="LSUBROT"> F  </i>
     <i name="WEIMIN">      0.00100000</i>
     <i name="EBREAK">      0.00000008</i>
     <i name="DEPER">      0.30000000</i>
     <i type="int" name="NRMM">     4</i>
     <i name="TIME">      0.40000000</i>
    </separator>
   </separator>
   <separator name="electronic mixer" >
    <i name="AMIX">      0.40000000</i>
    <i name="BMIX">      1.00000000</i>
    <i name="AMIN">      0.10000000</i>
    <i name="AMIX_MAG">      1.60000000</i>
    <i name="BMIX_MAG">      1.00000000</i>
    <separator name="electronic mixer details" >
     <i type="int" name="IMIX">     4</i>
     <i type="logical" name="MIXFIRST"> F  </i>
     <i type="int" name="MAXMIX">   -45</i>
     <i name="WC">    100.00000000</i>
     <i type="int" name="INIMIX">     1</i>
     <i type="int" name="MIXPRE">     1</i>
     <i type="int" name="MREMOVE">     5</i>
    </separator>
   </separator>
   <separator name="electronic dipolcorrection" >
    <i type="logical" name="LDIPOL"> F  </i>
    <i type="logical" name="LMONO"> F  </i>
    <i type="int" name="IDIPOL">     0</i>
    <i name="EPSILON">      1.00000000</i>
    <v name="DIPOL">   -100.00000000   -100.00000000   -100.00000000</v>
    <i name="EFIELD">      0.00000000</i>
   </separator>
  </separator>
  <separator name="grids" >
   <i type="int" name="NGX">    36</i>
   <i type="int" name="NGY">    42</i>
   <i type="int" name="NGZ">   140</i>
   <i type="int" name="NGXF">    72</i>
   <i type="int" name="NGYF">    84</i>
   <i type="int" name="NGZF">   280</i>
   <i type="logical" name="ADDGRID"> F  </i>
  </separator>
  <separator name="ionic" >
   <i type="int" name="NSW">   200</i>
   <i type="int" name="IBRION">     2</i>
   <i type="int" name="ISIF">     2</i>
   <i name="PSTRESS">      0.00000000</i>
   <i name="EDIFFG">     -0.01000000</i>
   <i type="int" name="NFREE">     1</i>
   <i name="POTIM">      0.30000000</i>
   <i name="SMASS">     -3.00000000</i>
   <i name="SCALEE">      1.00000000</i>
  </separator>
  <separator name="ionic md" >
   <i name="TEBEG">      0.00010000</i>
   <i name="TEEND">      0.00010000</i>
   <i type="int" name="NBLOCK">     1</i>
   <i type="int" name="KBLOCK">   200</i>
   <i type="int" name="NPACO">   256</i>
   <i name="APACO">     16.00000000</i>
  </separator>
  <separator name="symmetry" >
   <i type="int" name="ISYM">     2</i>
   <i name="SYMPREC">      0.00001000</i>
  </separator>
  <separator name="dos" >
   <i type="logical" name="LORBIT"> F  </i>
   <v name="RWIGS">     -1.00000000     -1.00000000</v>
   <i type="int" name="NEDOS">   301</i>
   <i name="EMIN">     10.00000000</i>
   <i name="EMAX">    -10.00000000</i>
   <i name="EFERMI">      0.00000000</i>
  </separator>
  <separator name="writing" >
   <i type="int" name="NWRITE">     2</i>
   <i type="logical" name="LWAVE"> F  </i>
   <i type="logical" name="LCHARG"> F  </i>
   <i type="logical" name="LPARD"> F  </i>
   <i type="logical" name="LVTOT"> F  </i>
   <i type="logical" name="LVHAR"> F  </i>
   <i type="logical" name="LELF"> F  </i>
   <i type="logical" name="LOPTICS"> F  </i>
   <v name="STM">      0.00000000      0.00000000      0.00000000      0.00000000      0.00000000      0.00000000      0.00000000</v>
  </separator>
  <separator name="performance" >
   <i type="int" name="NPAR">     4</i>
   <i type="int" name="NSIM">     4</i>
   <i type="int" name="NBLK">    -1</i>
   <i type="logical" name="LPLANE"> T  </i>
   <i type="logical" name="LSCALAPACK"> T  </i>
   <i type="logical" name="LSCAAWARE"> F  </i>
   <i type="logical" name="LSCALU"> F  </i>
   <i type="logical" name="LASYNC"> F  </i>
   <i type="logical" name="LORBITALREAL"> F  </i>
  </separator>
  <separator name="miscellaneous" >
   <i type="int" name="IDIOT">     3</i>
   <i type="logical" name="LMUSIC"> F  </i>
   <v name="POMASS">     72.61000000     78.96000000</v>
   <v name="DARWINR">      0.00000000      0.00000000</v>
   <v name="DARWINV">      1.00000000      1.00000000</v>
   <i type="logical" name="LCORR"> T  </i>
  </separator>
  <i type="logical" name="GGA_COMPAT"> T  </i>
  <i type="logical" name="LBERRY"> F  </i>
  <i type="int" name="ICORELEVEL">     0</i>
  <i type="logical" name="LDAU"> F  </i>
  <i type="int" name="I_CONSTRAINED_M">     0</i>
  <separator name="electronic exchange-correlation" >
   <i type="string" name="GGA">--</i>
   <i type="int" name="VOSKOWN">     0</i>
   <i type="logical" name="LHFCALC"> F  </i>
   <i type="string" name="PRECFOCK"></i>
   <i type="logical" name="LSYMGRAD"> F  </i>
   <i type="logical" name="LHFONE"> F  </i>
   <i type="logical" name="LRHFCALC"> F  </i>
   <i type="logical" name="LTHOMAS"> F  </i>
   <i type="logical" name="LMODELHF"> F  </i>
   <i name="ENCUT4O">     -1.00000000</i>
   <i type="int" name="EXXOEP">     0</i>
   <i type="int" name="FOURORBIT">     0</i>
   <i name="AEXX">      0.00000000</i>
   <i name="HFALPHA">      0.00000000</i>
   <i name="MCALPHA">      0.00000000</i>
   <i name="ALDAX">      1.00000000</i>
   <i name="AGGAX">      1.00000000</i>
   <i name="ALDAC">      1.00000000</i>
   <i name="AGGAC">      1.00000000</i>
   <i type="int" name="NKREDX">     1</i>
   <i type="int" name="NKREDY">     1</i>
   <i type="int" name="NKREDZ">     1</i>
   <i type="logical" name="SHIFTRED"> F  </i>
   <i type="logical" name="ODDONLY"> F  </i>
   <i type="logical" name="EVENONLY"> F  </i>
   <i type="int" name="LMAXFOCK">     0</i>
   <i type="int" name="NMAXFOCKAE">     0</i>
   <i type="logical" name="LFOCKAEDFT"> F  </i>
   <i name="HFSCREEN">      0.00000000</i>
   <i name="HFSCREENC">      0.00000000</i>
   <i type="int" name="NBANDSGWLOW">     0</i>
  </separator>
  <separator name="vdW DFT" >
   <i type="logical" name="LUSE_VDW"> F  </i>
   <i name="Zab_VDW">     -0.84910000</i>
   <i name="PARAM1">      0.12340000</i>
   <i name="PARAM2">      1.00000000</i>
   <i name="PARAM3">      0.00000000</i>
  </separator>
  <separator name="model GW" >
   <i type="int" name="MODEL_GW">     0</i>
   <i name="MODEL_EPS0">     49.16796793</i>
   <i name="MODEL_ALPHA">      1.00000000</i>
  </separator>
  <separator name="linear response parameters" >
   <i type="logical" name="LEPSILON"> F  </i>
   <i type="logical" name="LRPA"> F  </i>
   <i type="logical" name="LNABLA"> F  </i>
   <i type="logical" name="LVEL"> F  </i>
   <i type="int" name="KINTER">     0</i>
   <i name="CSHIFT">      0.10000000</i>
   <i name="OMEGAMAX">     -1.00000000</i>
   <i name="DEG_THRESHOLD">      0.00200000</i>
  </separator>
  <separator name="orbital magnetization" >
   <i type="logical" name="NUCIND"> F  </i>
   <v name="MAGPOS">      0.00000000      0.00000000      0.00000000</v>
   <i type="logical" name="LNICSALL"> T  </i>
   <i type="logical" name="ORBITALMAG"> F  </i>
   <i type="logical" name="LMAGBLOCH"> F  </i>
   <i type="logical" name="LCHIMAG"> F  </i>
   <i type="logical" name="LGAUGE"> T  </i>
   <i type="int" name="MAGATOM">     0</i>
   <v name="MAGDIPOL">      0.00000000      0.00000000      0.00000000</v>
   <v name="AVECCONST">      0.00000000      0.00000000      0.00000000</v>
  </separator>
  <separator name="response functions" >
   <i type="logical" name="LADDER"> F  </i>
   <i type="logical" name="LFXC"> F  </i>
   <i type="logical" name="LHARTREE"> T  </i>
   <i type="int" name="IBSE">     0</i>
   <v type="int" name="KPOINT">    -1     0     0     0</v>
   <i type="logical" name="LTCTE"> F  </i>
   <i type="logical" name="LTETE"> F  </i>
   <i type="logical" name="LTRIPLET"> F  </i>
   <i type="logical" name="LFXCEPS"> F  </i>
   <i type="logical" name="LFXHEG"> F  </i>
   <i type="int" name="NATURALO">     0</i>
   <i type="logical" name="L2ORDER"> F  </i>
   <i type="logical" name="LUSEW"> F  </i>
   <i name="ENCUTGW">     -2.00000000</i>
   <i name="ENCUTGWSOFT">     -2.00000000</i>
   <i name="ENCUTLF">     -1.00000000</i>
   <i type="int" name="LMAXMP2">    -1</i>
   <i name="SCISSOR">      0.00000000</i>
   <i type="int" name="NOMEGA">     0</i>
   <i type="int" name="NOMEGAR">     0</i>
   <i type="int" name="NBANDSGW">    -1</i>
   <i type="int" name="NBANDSO">    -1</i>
   <i type="int" name="NBANDSV">    -1</i>
   <i type="int" name="NELM">   250</i>
   <i type="int" name="NELMHF">     1</i>
   <i type="int" name="DIM">     3</i>
   <i type="int" name="ANTIRES">     0</i>
   <i name="OMEGAMAX">    -30.00000000</i>
   <i name="OMEGAMIN">    -30.00000000</i>
   <i name="OMEGATL">   -200.00000000</i>
   <i type="int" name="OMEGAGRID">     0</i>
   <i name="CSHIFT">     -0.10000000</i>
   <i type="logical" name="SELFENERGY"> F  </i>
   <i type="logical" name="LSPECTRAL"> F  </i>
   <i type="logical" name="LSPECTRALGW"> F  </i>
   <i type="logical" name="LSINGLES"> F  </i>
   <i type="logical" name="LFERMIGW"> F  </i>
   <i type="logical" name="ODDONLYGW"> F  </i>
   <i type="logical" name="EVENONLYGW"> F  </i>
   <i type="int" name="NKREDLFX">     1</i>
   <i type="int" name="NKREDLFY">     1</i>
   <i type="int" name="NKREDLFZ">     1</i>
   <i type="int" name="MAXMEM">  1800</i>
   <i type="int" name="TELESCOPE">     0</i>
   <i type="int" name="TAUPAR">     1</i>
   <i type="int" name="OMEGAPAR">    -1</i>
   <i name="LAMBDA">      1.00000000</i>
  </separator>
  <separator name="External order field" >
   <i name="OFIELD_KAPPA">      0.00000000</i>
   <v name="OFIELD_K">      0.00000000      0.00000000      0.00000000</v>
   <i name="OFIELD_Q6_NEAR">      0.00000000</i>
   <i name="OFIELD_Q6_FAR">      0.00000000</i>
   <i name="OFIELD_A">      0.00000000</i>
  </separator>
 </parameters>
 <atominfo>
  <atoms>       6 </atoms>
  <types>       2 </types>
  <array name="atoms" >
   <dimension dim="1">ion</dimension>
   <field type="string">element</field>
   <field type="int">atomtype</field>
   <set>
    <rc><c>Ge</c><c>   1</c></rc>
    <rc><c>Ge</c><c>   1</c></rc>
    <rc><c>Se</c><c>   2</c></rc>
    <rc><c>Se</c><c>   2</c></rc>
    <rc><c>Se</c><c>   2</c></rc>
    <rc><c>Se</c><c>   2</c></rc>
   </set>
  </array>
  <array name="atomtypes" >
   <dimension dim="1">type</dimension>
   <field type="int">atomspertype</field>
   <field type="string">element</field>
   <field>mass</field>
   <field>valence</field>
   <field type="string">pseudopotential</field>
   <set>
    <rc><c>   2</c><c>Ge</c><c>     72.61000000</c><c>     14.00000000</c><c>  PAW_PBE Ge_d 03Jul2007                </c></rc>
    <rc><c>   4</c><c>Se</c><c>     78.96000000</c><c>      6.00000000</c><c>  PAW_PBE Se 06Sep2000                  </c></rc>
   </set>
  </array>
 </atominfo>
 <structure name="initialpos" >
  <crystal>
   <varray name="basis" >
    <v>       4.88148500       0.00000000       0.00000000 </v>
    <v>       0.00000000       5.57120200       0.00000000 </v>
    <v>       0.00000000       0.00000000      18.07929100 </v>
   </varray>
   <i name="volume">    491.67967925 </i>
   <varray name="rec_basis" >
    <v>       0.20485569       0.00000000       0.00000000 </v>
    <v>       0.00000000       0.17949448       0.00000000 </v>
    <v>       0.00000000       0.00000000       0.05531190 </v>
   </varray>
  </crystal>
  <varray name="positions" >
   <v>       0.50000000       0.50000000       0.50000000 </v>
   <v>       0.00000000       0.00000000       0.50000000 </v>
   <v>       0.25000000       0.25000000       0.41502600 </v>
   <v>       0.75000000       0.75000000       0.41502600 </v>
   <v>       0.75000000       0.25000000       0.58497400 </v>
   <v>       0.25000000       0.75000000       0.58497400 </v>
  </varray>
 </structure>
 <calculation>
  <scstep>
   <time name="dav">    1.65    1.65</time>
   <time name="total">    1.68    1.69</time>
   <energy>
    <i name="alphaZ">     46.71951762 </i>
    <i name="ewald">   5017.83394547 </i>
    <i name="hartreedc">  -9805.60249768 </i>
    <i name="XCdc">    142.49994554 </i>
    <i name="pawpsdc">   4514.43351212 </i>
    <i name="pawaedc">  -5329.26418529 </i>
    <i name="eentropy">     -0.00033021 </i>
    <i name="bandstr">   -370.92937843 </i>
    <i name="atom">   6220.98622430 </i>
    <i name="e_fr_energy">    436.67675344 </i>
    <i name="e_wo_entrp">    436.67708365 </i>
    <i name="e_0_energy">    436.67691854 </i>
   </energy>
  </scstep>
  <scstep>
   <time name="dav">    1.73    1.73</time>
   <time name="total">    1.73    1.73</time>
   <energy>
    <i name="e_fr_energy">     44.62221076 </i>
    <i name="e_wo_entrp">     44.62267983 </i>
    <i name="e_0_energy">     44.62244530 </i>
   </energy>
  </scstep>
  <scstep>
   <time name="dav">    1.85    1.85</time>
   <time name="total">    1.85    1.86</time>
   <energy>
    <i name="e_fr_energy">    -21.62978484 </i>
    <i name="e_wo_entrp">    -21.62978484 </i>
    <i name="e_0_energy">    -21.62978484 </i>
   </energy>
  </scstep>
  <scstep>
   <time name="dav">    1.67    1.68</time>
   <time name="total">    1.67    1.68</time>
   <energy>
    <i name="e_fr_energy">    -24.75265545 </i>
    <i name="e_wo_entrp">    -24.75265545 </i>
    <i name="e_0_energy">    -24.75265545 </i>
   </energy>
  </scstep>
  <scstep>
   <time name="dav">    1.97    1.97</time>
   <time name="total">    2.06    2.07</time>
   <energy>
    <i name="e_fr_energy">    -24.86208011 </i>
    <i name="e_wo_entrp">    -24.86208011 </i>
    <i name="e_0_energy">    -24.86208011 </i>
   </energy>
  </scstep>
  <scstep>
   <time name="dav">    1.92    1.92</time>
   <time name="total">    2.04    2.05</time>
   <energy>
    <i name="e_fr_energy">    -24.36479042 </i>
    <i name="e_wo_entrp">    -24.36479042 </i>
    <i name="e_0_energy">    -24.36479042 </i>
   </energy>
  </scstep>
  <scstep>
   <time name="dav">    1.74    1.74</time>
   <time name="total">    1.86    1.86</time>
   <energy>
    <i name="e_fr_energy">    -24.26897248 </i>
    <i name="e_wo_entrp">    -24.26897248 </i>
    <i name="e_0_energy">    -24.26897248 </i>
   </energy>
  </scstep>
  <scstep>
   <time name="dav">    1.84    1.84</time>
   <time name="total">    1.96    1.96</time>
   <energy>
    <i name="e_fr_energy">    -24.26307431 </i>
    <i name="e_wo_entrp">    -24.26307431 </i>
    <i name="e_0_energy">    -24.26307431 </i>
   </energy>
  </scstep>
  <scstep>
   <time name="dav">    1.86    1.87</time>
   <time name="total">    1.98    1.99</time>
   <energy>
    <i name="e_fr_energy">    -24.26251083 </i>
    <i name="e_wo_entrp">    -24.26251083 </i>
    <i name="e_0_energy">    -24.26251083 </i>
   </energy>
  </scstep>
  <scstep>
   <time name="dav">    1.94    1.95</time>
   <time name="total">    2.06    2.07</time>
   <energy>
    <i name="e_fr_energy">    -24.26227393 </i>
    <i name="e_wo_entrp">    -24.26227393 </i>
    <i name="e_0_energy">    -24.26227393 </i>
   </energy>
  </scstep>
  <scstep>
   <time name="dav">    1.59    1.59</time>
   <time name="total">    1.71    1.71</time>
   <energy>
    <i name="e_fr_energy">    -24.26206014 </i>
    <i name="e_wo_entrp">    -24.26206014 </i>
    <i name="e_0_energy">    -24.26206014 </i>
   </energy>
  </scstep>
  <scstep>
   <time name="dav">    1.54    1.54</time>
   <time name="total">    1.66    1.66</time>
   <energy>
    <i name="e_fr_energy">    -24.26219323 </i>
    <i name="e_wo_entrp">    -24.26219323 </i>
    <i name="e_0_energy">    -24.26219323 </i>
   </energy>
  </scstep>
  <scstep>
   <time name="dav">    1.52    1.52</time>
   <time name="total">    1.64    1.64</time>
   <energy>
    <i name="e_fr_energy">    -24.26246066 </i>
    <i name="e_wo_entrp">    -24.26246066 </i>
    <i name="e_0_energy">    -24.26246066 </i>
   </energy>
  </scstep>
  <scstep>
   <time name="dav">    1.44    1.44</time>
   <time name="total">    1.56    1.56</time>
   <energy>
    <i name="e_fr_energy">    -24.26256304 </i>
    <i name="e_wo_entrp">    -24.26256304 </i>
    <i name="e_0_energy">    -24.26256304 </i>
   </energy>
  </scstep>
  <scstep>
   <time name="dav">    1.41    1.42</time>
   <time name="total">    1.53    1.54</time>
   <energy>
    <i name="e_fr_energy">    -24.26261980 </i>
    <i name="e_wo_entrp">    -24.26261980 </i>
    <i name="e_0_energy">    -24.26261980 </i>
   </energy>
  </scstep>
  <scstep>
   <time name="dav">    1.36    1.37</time>
   <time name="total">    1.48    1.49</time>
   <energy>
    <i name="e_fr_energy">    -24.26268487 </i>
    <i name="e_wo_entrp">    -24.26268487 </i>
    <i name="e_0_energy">    -24.26268487 </i>
   </energy>
  </scstep>
  <scstep>
   <time name="dav">    1.26    1.27</time>
   <time name="total">    1.38    1.39</time>
   <energy>
    <i name="e_fr_energy">    -24.26273254 </i>
    <i name="e_wo_entrp">    -24.26273254 </i>
    <i name="e_0_energy">    -24.26273254 </i>
   </energy>
  </scstep>
  <scstep>
   <time name="dav">    1.32    1.32</time>
   <time name="total">    1.44    1.44</time>
   <energy>
    <i name="e_fr_energy">    -24.26276140 </i>
    <i name="e_wo_entrp">    -24.26276140 </i>
    <i name="e_0_energy">    -24.26276140 </i>
   </energy>
  </scstep>
  <scstep>
   <time name="dav">    1.33    1.34</time>
   <time name="total">    1.36    1.37</time>
   <energy>
    <i name="alphaZ">     46.71951762 </i>
    <i name="ewald">   5017.83394547 </i>
    <i name="hartreedc">  -9810.38847946 </i>
    <i name="XCdc">    143.03807996 </i>
    <i name="pawpsdc">   5773.68538681 </i>
    <i name="pawaedc">  -6593.88478822 </i>
    <i name="eentropy">     -0.00000000 </i>
    <i name="bandstr">   -822.25265296 </i>
    <i name="atom">   6220.98622430 </i>
    <i name="e_fr_energy">    -24.26276649 </i>
    <i name="e_wo_entrp">    -24.26276649 </i>
    <i name="e_0_energy">    -24.26276649 </i>
   </energy>
  </scstep>
  <structure>
   <crystal>
    <varray name="basis" >
     <v>       4.88148500       0.00000000       0.00000000 </v>
     <v>       0.00000000       5.57120200       0.00000000 </v>
     <v>       0.00000000       0.00000000      18.07929100 </v>
    </varray>
    <i name="volume">    491.67967925 </i>
    <varray name="rec_basis" >
     <v>       0.20485569       0.00000000       0.00000000 </v>
     <v>       0.00000000       0.17949448       0.00000000 </v>
     <v>       0.00000000       0.00000000       0.05531190 </v>
    </varray>
   </crystal>
   <varray name="positions" >
    <v>       0.50000000       0.50000000       0.50000000 </v>
    <v>       0.00000000       0.00000000       0.50000000 </v>
    <v>       0.25000000       0.25000000       0.41502600 </v>
    <v>       0.75000000       0.75000000       0.41502600 </v>
    <v>       0.75000000       0.25000000       0.58497400 </v>
    <v>       0.25000000       0.75000000       0.58497400 </v>
   </varray>
  </structure>
  <varray name="forces" >
   <v>      -0.00000000       0.00000000       0.00000000 </v>
   <v>       0.00000000       0.00000000       0.00000000 </v>
   <v>       0.00000000       0.00000000      -0.02349352 </v>
   <v>       0.00000000       0.00000000      -0.02349352 </v>
   <v>       0.00000000      -0.00000000       0.02349352 </v>
   <v>      -0.00000000       0.00000000       0.02349352 </v>
  </varray>
  <varray name="stress" >
   <v>       0.94943032       0.00000000       0.00000000 </v>
   <v>       0.00000000       0.98956154       0.00000000 </v>
   <v>       0.00000000       0.00000000       0.42414815 </v>
  </varray>
  <energy>
   <i name="e_fr_energy">    -24.26276649 </i>
   <i name="e_wo_entrp">    -24.26276649 </i>
   <i name="e_0_energy">     -0.00000000 </i>
  </energy>
  <time name="totalsc">   33.85   33.93</time>
 </calculation>
 <calculation>
  <scstep>
   <time name="dav">    1.39    1.39</time>
   <time name="total">    1.51    1.52</time>
   <energy>
    <i name="alphaZ">     46.71951762 </i>
    <i name="ewald">   5016.27430848 </i>
    <i name="hartreedc">  -9808.87953642 </i>
    <i name="XCdc">    143.03179763 </i>
    <i name="pawpsdc">   5773.66858460 </i>
    <i name="pawaedc">  -6593.86806803 </i>
    <i name="eentropy">     -0.00000000 </i>
    <i name="bandstr">   -822.19564111 </i>
    <i name="atom">   6220.98622430 </i>
    <i name="e_fr_energy">    -24.26281293 </i>
    <i name="e_wo_entrp">    -24.26281293 </i>
    <i name="e_0_energy">    -24.26281293 </i>
   </energy>
  </scstep>
  <scstep>
   <time name="dav">    1.59    1.60</time>
   <time name="total">    1.71    1.72</time>
   <energy>
    <i name="e_fr_energy">    -24.26282099 </i>
    <i name="e_wo_entrp">    -24.26282099 </i>
    <i name="e_0_energy">    -24.26282099 </i>
   </energy>
  </scstep>
  <scstep>
   <time name="dav">    1.26    1.26</time>
   <time name="total">    1.38    1.38</time>
   <energy>
    <i name="e_fr_energy">    -24.26282043 </i>
    <i name="e_wo_entrp">    -24.26282043 </i>
    <i name="e_0_energy">    -24.26282043 </i>
   </energy>
  </scstep>
  <scstep>
   <time name="dav">    1.18    1.18</time>
   <time name="total">    1.30    1.30</time>
   <energy>
    <i name="e_fr_energy">    -24.26282003 </i>
    <i name="e_wo_entrp">    -24.26282003 </i>
    <i name="e_0_energy">    -24.26282003 </i>
   </energy>
  </scstep>
  <scstep>
   <time name="dav">    1.12    1.12</time>
   <time name="total">    1.24    1.24</time>
   <energy>
    <i name="e_fr_energy">    -24.26281987 </i>
    <i name="e_wo_entrp">    -24.26281987 </i>
    <i name="e_0_energy">    -24.26281987 </i>
   </energy>
  </scstep>
  <scstep>
   <time name="dav">    1.10    1.10</time>
   <time name="total">    1.13    1.14</time>
   <energy>
    <i name="alphaZ">     46.71951762 </i>
    <i name="ewald">   5016.27430848 </i>
    <i name="hartreedc">  -9808.87850088 </i>
    <i name="XCdc">    143.03260745 </i>
    <i name="pawpsdc">   5772.01302699 </i>
    <i name="pawaedc">  -6592.20173633 </i>
    <i name="eentropy">     -0.00000000 </i>
    <i name="bandstr">   -822.20826748 </i>
    <i name="atom">   6220.98622430 </i>
    <i name="e_fr_energy">    -24.26281984 </i>
    <i name="e_wo_entrp">    -24.26281984 </i>
    <i name="e_0_energy">    -24.26281984 </i>
   </energy>
  </scstep>
  <structure>
   <crystal>
    <varray name="basis" >
     <v>       4.88148500       0.00000000       0.00000000 </v>
     <v>       0.00000000       5.57120200       0.00000000 </v>
     <v>       0.00000000       0.00000000      18.07929100 </v>
    </varray>
    <i name="volume">    491.67967925 </i>
    <varray name="rec_basis" >
     <v>       0.20485569       0.00000000       0.00000000 </v>
     <v>       0.00000000       0.17949448       0.00000000 </v>
     <v>       0.00000000       0.00000000       0.05531190 </v>
    </varray>
   </crystal>
   <varray name="positions" >
    <v>       0.50000000       0.50000000       0.50000000 </v>
    <v>       0.00000000       0.00000000       0.50000000 </v>
    <v>       0.25000000       0.25000000       0.41498839 </v>
    <v>       0.75000000       0.75000000       0.41498839 </v>
    <v>       0.75000000       0.25000000       0.58501161 </v>
    <v>       0.25000000       0.75000000       0.58501161 </v>
   </varray>
  </structure>
  <varray name="forces" >
   <v>      -0.00000000       0.00000000      -0.00000000 </v>
   <v>      -0.00000000       0.00000000       0.00000000 </v>
   <v>       0.00000000       0.00000000      -0.01563321 </v>
   <v>       0.00000000      -0.00000000      -0.01563321 </v>
   <v>       0.00000000      -0.00000000       0.01563321 </v>
   <v>       0.00000000      -0.00000000       0.01563321 </v>
  </varray>
  <varray name="stress" >
   <v>       0.90466294       0.00000000       0.00000000 </v>
   <v>       0.00000000       0.93760827       0.00000000 </v>
   <v>       0.00000000       0.00000000       0.26459514 </v>
  </varray>
  <energy>
   <i name="e_fr_energy">    -24.26281984 </i>
   <i name="e_wo_entrp">    -24.26281984 </i>
   <i name="e_0_energy">     -0.00000000 </i>
  </energy>
  <time name="totalsc">    9.45    9.47</time>
 </calculation>
 <calculation>
  <scstep>
   <time name="dav">    1.37    1.37</time>
   <time name="total">    1.49    1.49</time>
   <energy>
    <i name="alphaZ">     46.71951762 </i>
    <i name="ewald">   5013.17242326 </i>
    <i name="hartreedc">  -9805.87908715 </i>
    <i name="XCdc">    143.02013083 </i>
    <i name="pawpsdc">   5772.00527545 </i>
    <i name="pawaedc">  -6592.19399863 </i>
    <i name="eentropy">     -0.00000000 </i>
    <i name="bandstr">   -822.09331563 </i>
    <i name="atom">   6220.98622430 </i>
    <i name="e_fr_energy">    -24.26282994 </i>
    <i name="e_wo_entrp">    -24.26282994 </i>
    <i name="e_0_energy">    -24.26282994 </i>
   </energy>
  </scstep>
  <scstep>
   <time name="dav">    1.58    1.59</time>
   <time name="total">    1.70    1.71</time>
   <energy>
    <i name="e_fr_energy">    -24.26286171 </i>
    <i name="e_wo_entrp">    -24.26286171 </i>
    <i name="e_0_energy">    -24.26286171 </i>
   </energy>
  </scstep>
  <scstep>
   <time name="dav">    1.25    1.25</time>
   <time name="total">    1.37    1.38</time>
   <energy>
    <i name="e_fr_energy">    -24.26285987 </i>
    <i name="e_wo_entrp">    -24.26285987 </i>
    <i name="e_0_energy">    -24.26285987 </i>
   </energy>
  </scstep>
  <scstep>
   <time name="dav">    1.13    1.13</time>
   <time name="total">    1.25    1.25</time>
   <energy>
    <i name="e_fr_energy">    -24.26285879 </i>
    <i name="e_wo_entrp">    -24.26285879 </i>
    <i name="e_0_energy">    -24.26285879 </i>
   </energy>
  </scstep>
  <scstep>
   <time name="dav">    1.10    1.11</time>
   <time name="total">    1.22    1.23</time>
   <energy>
    <i name="e_fr_energy">    -24.26285836 </i>
    <i name="e_wo_entrp">    -24.26285836 </i>
    <i name="e_0_energy">    -24.26285836 </i>
   </energy>
  </scstep>
  <scstep>
   <time name="dav">    1.08    1.08</time>
   <time name="total">    1.11    1.11</time>
   <energy>
    <i name="alphaZ">     46.71951762 </i>
    <i name="ewald">   5013.17242326 </i>
    <i name="hartreedc">  -9805.88121248 </i>
    <i name="XCdc">    143.02174781 </i>
    <i name="pawpsdc">   5768.75125511 </i>
    <i name="pawaedc">  -6588.91856872 </i>
    <i name="eentropy">     -0.00000000 </i>
    <i name="bandstr">   -822.11424518 </i>
    <i name="atom">   6220.98622430 </i>
    <i name="e_fr_energy">    -24.26285828 </i>
    <i name="e_wo_entrp">    -24.26285828 </i>
    <i name="e_0_energy">    -24.26285828 </i>
   </energy>
  </scstep>
  <structure>
   <crystal>
    <varray name="basis" >
     <v>       4.88148500       0.00000000       0.00000000 </v>
     <v>       0.00000000       5.57120200       0.00000000 </v>
     <v>       0.00000000       0.00000000      18.07929100 </v>
    </varray>
    <i name="volume">    491.67967925 </i>
    <varray name="rec_basis" >
     <v>       0.20485569       0.00000000       0.00000000 </v>
     <v>       0.00000000       0.17949448       0.00000000 </v>
     <v>       0.00000000       0.00000000       0.05531190 </v>
    </varray>
   </crystal>
   <varray name="positions" >
    <v>       0.50000000       0.50000000       0.50000000 </v>
    <v>       0.00000000       0.00000000       0.50000000 </v>
    <v>       0.25000000       0.25000000       0.41491358 </v>
    <v>       0.75000000       0.75000000       0.41491358 </v>
    <v>       0.75000000       0.25000000       0.58508642 </v>
    <v>       0.25000000       0.75000000       0.58508642 </v>
   </varray>
  </structure>
  <varray name="forces" >
   <v>       0.00000000      -0.00000000      -0.00000000 </v>
   <v>      -0.00000000      -0.00000000      -0.00000000 </v>
   <v>       0.00000000      -0.00000000       0.00002198 </v>
   <v>      -0.00000000       0.00000000       0.00002198 </v>
   <v>      -0.00000000       0.00000000      -0.00002198 </v>
   <v>      -0.00000000       0.00000000      -0.00002198 </v>
  </varray>
  <varray name="stress" >
   <v>       0.82279393       0.00000000       0.00000000 </v>
   <v>       0.00000000       0.84269219       0.00000000 </v>
   <v>       0.00000000       0.00000000      -0.04334698 </v>
  </varray>
  <energy>
   <i name="e_fr_energy">    -24.26285828 </i>
   <i name="e_wo_entrp">    -24.26285828 </i>
   <i name="e_0_energy">     -0.00000000 </i>
  </energy>
  <time name="totalsc">    9.24    9.26</time>
  <eigenvalues>
   <array>
    <dimension dim="1">band</dimension>
    <dimension dim="2">kpoint</dimension>
    <dimension dim="3">spin</dimension>
    <field>eigene</field>
    <field>occ</field>
    <set>
     <set comment="spin 1">
      <set comment="kpoint 1">
       <r>  -27.7759    1.0000 </r>
       <r>  -27.7715    1.0000 </r>
       <r>  -27.7706    1.0000 </r>
       <r>  -27.7633    1.0000 </r>
       <r>  -27.7621    1.0000 </r>
       <r>  -27.7490    1.0000 </r>
       <r>  -27.7442    1.0000 </r>
       <r>  -27.7431    1.0000 </r>
       <r>  -27.7303    1.0000 </r>
       <r>  -27.7249    1.0000 </r>
       <r>  -16.9077    1.0000 </r>
       <r>  -15.3918    1.0000 </r>
       <r>  -14.9604    1.0000 </r>
       <r>  -14.7421    1.0000 </r>
       <r>  -11.7775    1.0000 </r>
       <r>   -9.2099    1.0000 </r>
       <r>   -7.4568    1.0000 </r>
       <r>   -5.8947    1.0000 </r>
       <r>   -5.4817    1.0000 </r>
       <r>   -5.4148    1.0000 </r>
       <r>   -5.1816    1.0000 </r>
       <r>   -5.1256    1.0000 </r>
       <r>   -4.6500    1.0000 </r>
       <r>   -4.1495    1.0000 </r>
       <r>   -2.8174    1.0000 </r>
       <r>   -2.7662    1.0000 </r>
       <r>   -1.7977    0.0000 </r>
       <r>   -1.3702    0.0000 </r>
       <r>   -0.8686    0.0000 </r>
       <r>    0.1367    0.0000 </r>
       <r>    0.6878    0.0000 </r>
       <r>    1.9614    0.0000 </r>
      </set>
      <set comment="kpoint 2">
       <r>  -27.7758    1.0000 </r>
       <r>  -27.7714    1.0000 </r>
       <r>  -27.7704    1.0000 </r>
       <r>  -27.7634    1.0000 </r>
       <r>  -27.7621    1.0000 </r>
       <r>  -27.7489    1.0000 </r>
       <r>  -27.7442    1.0000 </r>
       <r>  -27.7434    1.0000 </r>
       <r>  -27.7303    1.0000 </r>
       <r>  -27.7249    1.0000 </r>
       <r>  -16.8908    1.0000 </r>
       <r>  -15.3854    1.0000 </r>
       <r>  -14.9628    1.0000 </r>
       <r>  -14.7815    1.0000 </r>
       <r>  -11.7345    1.0000 </r>
       <r>   -9.2248    1.0000 </r>
       <r>   -7.4553    1.0000 </r>
       <r>   -5.8885    1.0000 </r>
       <r>   -5.5780    1.0000 </r>
       <r>   -5.4945    1.0000 </r>
       <r>   -5.2441    1.0000 </r>
       <r>   -5.0213    1.0000 </r>
       <r>   -4.6460    1.0000 </r>
       <r>   -4.1352    1.0000 </r>
       <r>   -2.8783    1.0000 </r>
       <r>   -2.7973    1.0000 </r>
       <r>   -1.6973    0.0000 </r>
       <r>   -1.3660    0.0000 </r>
       <r>   -0.7564    0.0000 </r>
       <r>    0.1864    0.0000 </r>
       <r>    0.7365    0.0000 </r>
       <r>    1.9913    0.0000 </r>
      </set>
      <set comment="kpoint 3">
       <r>  -27.7753    1.0000 </r>
       <r>  -27.7713    1.0000 </r>
       <r>  -27.7700    1.0000 </r>
       <r>  -27.7638    1.0000 </r>
       <r>  -27.7620    1.0000 </r>
       <r>  -27.7487    1.0000 </r>
       <r>  -27.7443    1.0000 </r>
       <r>  -27.7442    1.0000 </r>
       <r>  -27.7301    1.0000 </r>
       <r>  -27.7251    1.0000 </r>
       <r>  -16.8406    1.0000 </r>
       <r>  -15.3665    1.0000 </r>
       <r>  -14.9705    1.0000 </r>
       <r>  -14.8928    1.0000 </r>
       <r>  -11.6124    1.0000 </r>
       <r>   -9.2714    1.0000 </r>
       <r>   -7.4495    1.0000 </r>
       <r>   -5.8673    1.0000 </r>
       <r>   -5.7387    1.0000 </r>
       <r>   -5.6994    1.0000 </r>
       <r>   -5.4054    1.0000 </r>
       <r>   -4.8411    1.0000 </r>
       <r>   -4.6516    1.0000 </r>
       <r>   -4.0938    1.0000 </r>
       <r>   -3.0357    1.0000 </r>
       <r>   -2.8822    1.0000 </r>
       <r>   -1.4383    0.0000 </r>
       <r>   -1.3417    0.0000 </r>
       <r>   -0.4411    0.0000 </r>
       <r>    0.3253    0.0000 </r>
       <r>    0.8711    0.0000 </r>
       <r>    2.0316    0.0000 </r>
      </set>
      <set comment="kpoint 4">
       <r>  -27.7747    1.0000 </r>
       <r>  -27.7710    1.0000 </r>
       <r>  -27.7694    1.0000 </r>
       <r>  -27.7645    1.0000 </r>
       <r>  -27.7618    1.0000 </r>
       <r>  -27.7484    1.0000 </r>
       <r>  -27.7455    1.0000 </r>
       <r>  -27.7445    1.0000 </r>
       <r>  -27.7298    1.0000 </r>
       <r>  -27.7254    1.0000 </r>
       <r>  -16.7578    1.0000 </r>
       <r>  -15.3365    1.0000 </r>
       <r>  -15.0588    1.0000 </r>
       <r>  -14.9839    1.0000 </r>
       <r>  -11.4271    1.0000 </r>
       <r>   -9.3547    1.0000 </r>
       <r>   -7.4361    1.0000 </r>
       <r>   -5.9692    1.0000 </r>
       <r>   -5.8864    1.0000 </r>
       <r>   -5.8240    1.0000 </r>
       <r>   -5.6105    1.0000 </r>
       <r>   -4.6895    1.0000 </r>
       <r>   -4.6710    1.0000 </r>
       <r>   -4.0291    1.0000 </r>
       <r>   -3.2478    1.0000 </r>
       <r>   -3.0018    1.0000 </r>
       <r>   -1.2732    0.0000 </r>
       <r>   -1.0995    0.0000 </r>
       <r>    0.0301    0.0000 </r>
       <r>    0.5289    0.0000 </r>
       <r>    1.0562    0.0000 </r>
       <r>    1.8657    0.0000 </r>
      </set>
      <set comment="kpoint 5">
       <r>  -27.7738    1.0000 </r>
       <r>  -27.7706    1.0000 </r>
       <r>  -27.7688    1.0000 </r>
       <r>  -27.7654    1.0000 </r>
       <r>  -27.7611    1.0000 </r>
       <r>  -27.7480    1.0000 </r>
       <r>  -27.7472    1.0000 </r>
       <r>  -27.7447    1.0000 </r>
       <r>  -27.7295    1.0000 </r>
       <r>  -27.7258    1.0000 </r>
       <r>  -16.6438    1.0000 </r>
       <r>  -15.2973    1.0000 </r>
       <r>  -15.2603    1.0000 </r>
       <r>  -15.0040    1.0000 </r>
       <r>  -11.1963    1.0000 </r>
       <r>   -9.4801    1.0000 </r>
       <r>   -7.4086    1.0000 </r>
       <r>   -6.2577    1.0000 </r>
       <r>   -6.0055    1.0000 </r>
       <r>   -5.8100    1.0000 </r>
       <r>   -5.7521    1.0000 </r>
       <r>   -4.7678    1.0000 </r>
       <r>   -4.5319    1.0000 </r>
       <r>   -3.9459    1.0000 </r>
       <r>   -3.4804    1.0000 </r>
       <r>   -3.1360    1.0000 </r>
       <r>   -1.1438    0.0000 </r>
       <r>   -0.7563    0.0000 </r>
       <r>    0.6097    0.0000 </r>
       <r>    0.7667    0.0000 </r>
       <r>    1.2357    0.0000 </r>
       <r>    1.7003    0.0000 </r>
      </set>
      <set comment="kpoint 6">
       <r>  -27.7728    1.0000 </r>
       <r>  -27.7702    1.0000 </r>
       <r>  -27.7685    1.0000 </r>
       <r>  -27.7664    1.0000 </r>
       <r>  -27.7600    1.0000 </r>
       <r>  -27.7493    1.0000 </r>
       <r>  -27.7475    1.0000 </r>
       <r>  -27.7451    1.0000 </r>
       <r>  -27.7290    1.0000 </r>
       <r>  -27.7262    1.0000 </r>
       <r>  -16.5007    1.0000 </r>
       <r>  -15.4808    1.0000 </r>
       <r>  -15.2518    1.0000 </r>
       <r>  -15.0312    1.0000 </r>
       <r>  -10.9362    1.0000 </r>
       <r>   -9.6506    1.0000 </r>
       <r>   -7.3586    1.0000 </r>
       <r>   -6.5351    1.0000 </r>
       <r>   -6.0924    1.0000 </r>
       <r>   -5.9728    1.0000 </r>
       <r>   -5.6490    1.0000 </r>
       <r>   -4.8849    1.0000 </r>
       <r>   -4.4215    1.0000 </r>
       <r>   -3.8493    1.0000 </r>
       <r>   -3.7073    1.0000 </r>
       <r>   -3.2700    1.0000 </r>
       <r>   -0.9568    0.0000 </r>
       <r>   -0.4815    0.0000 </r>
       <r>    1.0040    0.0000 </r>
       <r>    1.2543    0.0000 </r>
       <r>    1.3547    0.0000 </r>
       <r>    1.5721    0.0000 </r>
      </set>
      <set comment="kpoint 7">
       <r>  -27.7716    1.0000 </r>
       <r>  -27.7697    1.0000 </r>
       <r>  -27.7686    1.0000 </r>
       <r>  -27.7677    1.0000 </r>
       <r>  -27.7583    1.0000 </r>
       <r>  -27.7515    1.0000 </r>
       <r>  -27.7470    1.0000 </r>
       <r>  -27.7455    1.0000 </r>
       <r>  -27.7285    1.0000 </r>
       <r>  -27.7267    1.0000 </r>
       <r>  -16.3313    1.0000 </r>
       <r>  -15.7071    1.0000 </r>
       <r>  -15.2028    1.0000 </r>
       <r>  -15.0659    1.0000 </r>
       <r>  -10.6601    1.0000 </r>
       <r>   -9.8637    1.0000 </r>
       <r>   -7.2769    1.0000 </r>
       <r>   -6.7832    1.0000 </r>
       <r>   -6.1465    1.0000 </r>
       <r>   -6.0858    1.0000 </r>
       <r>   -5.5169    1.0000 </r>
       <r>   -5.0323    1.0000 </r>
       <r>   -4.3229    1.0000 </r>
       <r>   -3.9105    1.0000 </r>
       <r>   -3.7438    1.0000 </r>
       <r>   -3.3973    1.0000 </r>
       <r>   -0.7360    0.0000 </r>
       <r>   -0.3427    0.0000 </r>
       <r>    1.2034    0.0000 </r>
       <r>    1.4007    0.0000 </r>
       <r>    1.4641    0.0000 </r>
       <r>    1.4970    0.0000 </r>
      </set>
      <set comment="kpoint 8">
       <r>  -27.7703    1.0000 </r>
       <r>  -27.7693    1.0000 </r>
       <r>  -27.7690    1.0000 </r>
       <r>  -27.7689    1.0000 </r>
       <r>  -27.7562    1.0000 </r>
       <r>  -27.7539    1.0000 </r>
       <r>  -27.7465    1.0000 </r>
       <r>  -27.7459    1.0000 </r>
       <r>  -27.7279    1.0000 </r>
       <r>  -27.7273    1.0000 </r>
       <r>  -16.1392    1.0000 </r>
       <r>  -15.9291    1.0000 </r>
       <r>  -15.1536    1.0000 </r>
       <r>  -15.1072    1.0000 </r>
       <r>  -10.3809    1.0000 </r>
       <r>  -10.1110    1.0000 </r>
       <r>   -7.1561    1.0000 </r>
       <r>   -6.9917    1.0000 </r>
       <r>   -6.1664    1.0000 </r>
       <r>   -6.1484    1.0000 </r>
       <r>   -5.3625    1.0000 </r>
       <r>   -5.1964    1.0000 </r>
       <r>   -4.2147    1.0000 </r>
       <r>   -4.0800    1.0000 </r>
       <r>   -3.6327    1.0000 </r>
       <r>   -3.5175    1.0000 </r>
       <r>   -0.5212    0.0000 </r>
       <r>   -0.3683    0.0000 </r>
       <r>    1.3389    0.0000 </r>
       <r>    1.4083    0.0000 </r>
       <r>    1.4195    0.0000 </r>
       <r>    1.4207    0.0000 </r>
      </set>
      <set comment="kpoint 9">
       <r>  -27.7758    1.0000 </r>
       <r>  -27.7714    1.0000 </r>
       <r>  -27.7704    1.0000 </r>
       <r>  -27.7632    1.0000 </r>
       <r>  -27.7623    1.0000 </r>
       <r>  -27.7489    1.0000 </r>
       <r>  -27.7443    1.0000 </r>
       <r>  -27.7435    1.0000 </r>
       <r>  -27.7303    1.0000 </r>
       <r>  -27.7250    1.0000 </r>
       <r>  -16.8889    1.0000 </r>
       <r>  -15.3828    1.0000 </r>
       <r>  -15.0112    1.0000 </r>
       <r>  -14.7519    1.0000 </r>
       <r>  -11.7139    1.0000 </r>
       <r>   -9.2273    1.0000 </r>
       <r>   -7.4427    1.0000 </r>
       <r>   -5.9184    1.0000 </r>
       <r>   -5.4755    1.0000 </r>
       <r>   -5.4733    1.0000 </r>
       <r>   -5.2672    1.0000 </r>
       <r>   -5.0910    1.0000 </r>
       <r>   -4.6453    1.0000 </r>
       <r>   -4.1190    1.0000 </r>
       <r>   -2.8473    1.0000 </r>
       <r>   -2.8376    1.0000 </r>
       <r>   -1.6800    0.0000 </r>
       <r>   -1.3461    0.0000 </r>
       <r>   -0.7377    0.0000 </r>
       <r>    0.1543    0.0000 </r>
       <r>    0.7219    0.0000 </r>
       <r>    1.9889    0.0000 </r>
      </set>
      <set comment="kpoint 10">
       <r>  -27.7756    1.0000 </r>
       <r>  -27.7713    1.0000 </r>
       <r>  -27.7703    1.0000 </r>
       <r>  -27.7633    1.0000 </r>
       <r>  -27.7622    1.0000 </r>
       <r>  -27.7489    1.0000 </r>
       <r>  -27.7444    1.0000 </r>
       <r>  -27.7437    1.0000 </r>
       <r>  -27.7302    1.0000 </r>
       <r>  -27.7250    1.0000 </r>
       <r>  -16.8722    1.0000 </r>
       <r>  -15.3765    1.0000 </r>
       <r>  -15.0170    1.0000 </r>
       <r>  -14.7850    1.0000 </r>
       <r>  -11.6751    1.0000 </r>
       <r>   -9.2437    1.0000 </r>
       <r>   -7.4380    1.0000 </r>
       <r>   -5.9244    1.0000 </r>
       <r>   -5.6133    1.0000 </r>
       <r>   -5.5527    1.0000 </r>
       <r>   -5.2408    1.0000 </r>
       <r>   -4.9928    1.0000 </r>
       <r>   -4.6495    1.0000 </r>
       <r>   -4.1057    1.0000 </r>
       <r>   -2.9834    1.0000 </r>
       <r>   -2.7760    1.0000 </r>
       <r>   -1.6378    0.0000 </r>
       <r>   -1.3407    0.0000 </r>
       <r>   -0.6029    0.0000 </r>
       <r>    0.2023    0.0000 </r>
       <r>    0.7695    0.0000 </r>
       <r>    1.9674    0.0000 </r>
      </set>
      <set comment="kpoint 11">
       <r>  -27.7753    1.0000 </r>
       <r>  -27.7711    1.0000 </r>
       <r>  -27.7699    1.0000 </r>
       <r>  -27.7637    1.0000 </r>
       <r>  -27.7621    1.0000 </r>
       <r>  -27.7487    1.0000 </r>
       <r>  -27.7449    1.0000 </r>
       <r>  -27.7441    1.0000 </r>
       <r>  -27.7300    1.0000 </r>
       <r>  -27.7252    1.0000 </r>
       <r>  -16.8225    1.0000 </r>
       <r>  -15.3583    1.0000 </r>
       <r>  -15.0419    1.0000 </r>
       <r>  -14.8712    1.0000 </r>
       <r>  -11.5642    1.0000 </r>
       <r>   -9.2948    1.0000 </r>
       <r>   -7.4235    1.0000 </r>
       <r>   -5.9533    1.0000 </r>
       <r>   -5.8660    1.0000 </r>
       <r>   -5.6628    1.0000 </r>
       <r>   -5.2943    1.0000 </r>
       <r>   -4.8173    1.0000 </r>
       <r>   -4.6668    1.0000 </r>
       <r>   -4.0661    1.0000 </r>
       <r>   -3.1731    1.0000 </r>
       <r>   -2.7944    1.0000 </r>
       <r>   -1.4860    0.0000 </r>
       <r>   -1.3139    0.0000 </r>
       <r>   -0.2530    0.0000 </r>
       <r>    0.3356    0.0000 </r>
       <r>    0.9018    0.0000 </r>
       <r>    1.8480    0.0000 </r>
      </set>
      <set comment="kpoint 12">
       <r>  -27.7747    1.0000 </r>
       <r>  -27.7707    1.0000 </r>
       <r>  -27.7694    1.0000 </r>
       <r>  -27.7643    1.0000 </r>
       <r>  -27.7618    1.0000 </r>
       <r>  -27.7483    1.0000 </r>
       <r>  -27.7460    1.0000 </r>
       <r>  -27.7443    1.0000 </r>
       <r>  -27.7298    1.0000 </r>
       <r>  -27.7254    1.0000 </r>
       <r>  -16.7407    1.0000 </r>
       <r>  -15.3292    1.0000 </r>
       <r>  -15.1250    1.0000 </r>
       <r>  -14.9570    1.0000 </r>
       <r>  -11.3946    1.0000 </r>
       <r>   -9.3848    1.0000 </r>
       <r>   -7.3975    1.0000 </r>
       <r>   -6.1355    1.0000 </r>
       <r>   -6.0214    1.0000 </r>
       <r>   -5.7034    1.0000 </r>
       <r>   -5.4461    1.0000 </r>
       <r>   -4.7141    1.0000 </r>
       <r>   -4.6514    1.0000 </r>
       <r>   -4.0008    1.0000 </r>
       <r>   -3.3837    1.0000 </r>
       <r>   -2.8813    1.0000 </r>
       <r>   -1.2441    0.0000 </r>
       <r>   -1.2248    0.0000 </r>
       <r>    0.2246    0.0000 </r>
       <r>    0.5288    0.0000 </r>
       <r>    1.0869    0.0000 </r>
       <r>    1.6877    0.0000 </r>
      </set>
      <set comment="kpoint 13">
       <r>  -27.7740    1.0000 </r>
       <r>  -27.7703    1.0000 </r>
       <r>  -27.7691    1.0000 </r>
       <r>  -27.7650    1.0000 </r>
       <r>  -27.7612    1.0000 </r>
       <r>  -27.7479    1.0000 </r>
       <r>  -27.7477    1.0000 </r>
       <r>  -27.7446    1.0000 </r>
       <r>  -27.7294    1.0000 </r>
       <r>  -27.7258    1.0000 </r>
       <r>  -16.6281    1.0000 </r>
       <r>  -15.2915    1.0000 </r>
       <r>  -15.2912    1.0000 </r>
       <r>  -15.0015    1.0000 </r>
       <r>  -11.1817    1.0000 </r>
       <r>   -9.5177    1.0000 </r>
       <r>   -7.3566    1.0000 </r>
       <r>   -6.3875    1.0000 </r>
       <r>   -6.1015    1.0000 </r>
       <r>   -5.6764    1.0000 </r>
       <r>   -5.6430    1.0000 </r>
       <r>   -4.8035    1.0000 </r>
       <r>   -4.5177    1.0000 </r>
       <r>   -3.9130    1.0000 </r>
       <r>   -3.5916    1.0000 </r>
       <r>   -3.0087    1.0000 </r>
       <r>   -1.1172    0.0000 </r>
       <r>   -0.9117    0.0000 </r>
       <r>    0.7507    0.0000 </r>
       <r>    0.7679    0.0000 </r>
       <r>    1.2726    0.0000 </r>
       <r>    1.5451    0.0000 </r>
      </set>
      <set comment="kpoint 14">
       <r>  -27.7731    1.0000 </r>
       <r>  -27.7697    1.0000 </r>
       <r>  -27.7691    1.0000 </r>
       <r>  -27.7658    1.0000 </r>
       <r>  -27.7601    1.0000 </r>
       <r>  -27.7497    1.0000 </r>
       <r>  -27.7474    1.0000 </r>
       <r>  -27.7449    1.0000 </r>
       <r>  -27.7289    1.0000 </r>
       <r>  -27.7262    1.0000 </r>
       <r>  -16.4871    1.0000 </r>
       <r>  -15.4956    1.0000 </r>
       <r>  -15.2476    1.0000 </r>
       <r>  -15.0343    1.0000 </r>
       <r>  -10.9395    1.0000 </r>
       <r>   -9.6942    1.0000 </r>
       <r>   -7.2966    1.0000 </r>
       <r>   -6.6093    1.0000 </r>
       <r>   -6.1598    1.0000 </r>
       <r>   -5.8368    1.0000 </r>
       <r>   -5.6072    1.0000 </r>
       <r>   -4.9306    1.0000 </r>
       <r>   -4.4123    1.0000 </r>
       <r>   -3.8083    1.0000 </r>
       <r>   -3.7826    1.0000 </r>
       <r>   -3.1525    1.0000 </r>
       <r>   -0.9390    0.0000 </r>
       <r>   -0.6285    0.0000 </r>
       <r>    0.9673    0.0000 </r>
       <r>    1.2888    0.0000 </r>
       <r>    1.4046    0.0000 </r>
       <r>    1.4932    0.0000 </r>
      </set>
      <set comment="kpoint 15">
       <r>  -27.7721    1.0000 </r>
       <r>  -27.7695    1.0000 </r>
       <r>  -27.7691    1.0000 </r>
       <r>  -27.7667    1.0000 </r>
       <r>  -27.7584    1.0000 </r>
       <r>  -27.7519    1.0000 </r>
       <r>  -27.7469    1.0000 </r>
       <r>  -27.7453    1.0000 </r>
       <r>  -27.7284    1.0000 </r>
       <r>  -27.7267    1.0000 </r>
       <r>  -16.3204    1.0000 </r>
       <r>  -15.7119    1.0000 </r>
       <r>  -15.2007    1.0000 </r>
       <r>  -15.0693    1.0000 </r>
       <r>  -10.6800    1.0000 </r>
       <r>   -9.9094    1.0000 </r>
       <r>   -7.2129    1.0000 </r>
       <r>   -6.8007    1.0000 </r>
       <r>   -6.1832    1.0000 </r>
       <r>   -5.9961    1.0000 </r>
       <r>   -5.5068    1.0000 </r>
       <r>   -5.0805    1.0000 </r>
       <r>   -4.3179    1.0000 </r>
       <r>   -3.9511    1.0000 </r>
       <r>   -3.6921    1.0000 </r>
       <r>   -3.2972    1.0000 </r>
       <r>   -0.7358    0.0000 </r>
       <r>   -0.4562    0.0000 </r>
       <r>    1.1483    0.0000 </r>
       <r>    1.3768    0.0000 </r>
       <r>    1.4630    0.0000 </r>
       <r>    1.5550    0.0000 </r>
      </set>
      <set comment="kpoint 16">
       <r>  -27.7711    1.0000 </r>
       <r>  -27.7702    1.0000 </r>
       <r>  -27.7683    1.0000 </r>
       <r>  -27.7675    1.0000 </r>
       <r>  -27.7564    1.0000 </r>
       <r>  -27.7542    1.0000 </r>
       <r>  -27.7463    1.0000 </r>
       <r>  -27.7458    1.0000 </r>
       <r>  -27.7279    1.0000 </r>
       <r>  -27.7273    1.0000 </r>
       <r>  -16.1321    1.0000 </r>
       <r>  -15.9271    1.0000 </r>
       <r>  -15.1536    1.0000 </r>
       <r>  -15.1093    1.0000 </r>
       <r>  -10.4142    1.0000 </r>
       <r>  -10.1533    1.0000 </r>
       <r>   -7.1025    1.0000 </r>
       <r>   -6.9648    1.0000 </r>
       <r>   -6.1671    1.0000 </r>
       <r>   -6.1064    1.0000 </r>
       <r>   -5.3807    1.0000 </r>
       <r>   -5.2354    1.0000 </r>
       <r>   -4.2164    1.0000 </r>
       <r>   -4.0956    1.0000 </r>
       <r>   -3.5678    1.0000 </r>
       <r>   -3.4361    1.0000 </r>
       <r>   -0.5502    0.0000 </r>
       <r>   -0.4377    0.0000 </r>
       <r>    1.2824    0.0000 </r>
       <r>    1.3727    0.0000 </r>
       <r>    1.4612    0.0000 </r>
       <r>    1.4662    0.0000 </r>
      </set>
      <set comment="kpoint 17">
       <r>  -27.7754    1.0000 </r>
       <r>  -27.7710    1.0000 </r>
       <r>  -27.7701    1.0000 </r>
       <r>  -27.7629    1.0000 </r>
       <r>  -27.7627    1.0000 </r>
       <r>  -27.7487    1.0000 </r>
       <r>  -27.7445    1.0000 </r>
       <r>  -27.7444    1.0000 </r>
       <r>  -27.7301    1.0000 </r>
       <r>  -27.7252    1.0000 </r>
       <r>  -16.8327    1.0000 </r>
       <r>  -15.3561    1.0000 </r>
       <r>  -15.1508    1.0000 </r>
       <r>  -14.7805    1.0000 </r>
       <r>  -11.5370    1.0000 </r>
       <r>   -9.2822    1.0000 </r>
       <r>   -7.3989    1.0000 </r>
       <r>   -5.9792    1.0000 </r>
       <r>   -5.6313    1.0000 </r>
       <r>   -5.4830    1.0000 </r>
       <r>   -5.4464    1.0000 </r>
       <r>   -4.9966    1.0000 </r>
       <r>   -4.6527    1.0000 </r>
       <r>   -4.0333    1.0000 </r>
       <r>   -3.0130    1.0000 </r>
       <r>   -2.9232    1.0000 </r>
       <r>   -1.3859    0.0000 </r>
       <r>   -1.2712    0.0000 </r>
       <r>   -0.3756    0.0000 </r>
       <r>    0.2058    0.0000 </r>
       <r>    0.8159    0.0000 </r>
       <r>    1.9117    0.0000 </r>
      </set>
      <set comment="kpoint 18">
       <r>  -27.7753    1.0000 </r>
       <r>  -27.7709    1.0000 </r>
       <r>  -27.7700    1.0000 </r>
       <r>  -27.7631    1.0000 </r>
       <r>  -27.7625    1.0000 </r>
       <r>  -27.7486    1.0000 </r>
       <r>  -27.7450    1.0000 </r>
       <r>  -27.7442    1.0000 </r>
       <r>  -27.7300    1.0000 </r>
       <r>  -27.7253    1.0000 </r>
       <r>  -16.8166    1.0000 </r>
       <r>  -15.3505    1.0000 </r>
       <r>  -15.1588    1.0000 </r>
       <r>  -14.8040    1.0000 </r>
       <r>  -11.5090    1.0000 </r>
       <r>   -9.3030    1.0000 </r>
       <r>   -7.3858    1.0000 </r>
       <r>   -6.0025    1.0000 </r>
       <r>   -5.8448    1.0000 </r>
       <r>   -5.5002    1.0000 </r>
       <r>   -5.3230    1.0000 </r>
       <r>   -4.9112    1.0000 </r>
       <r>   -4.6676    1.0000 </r>
       <r>   -4.0215    1.0000 </r>
       <r>   -3.1684    1.0000 </r>
       <r>   -2.8145    1.0000 </r>
       <r>   -1.4397    0.0000 </r>
       <r>   -1.2631    0.0000 </r>
       <r>   -0.2102    0.0000 </r>
       <r>    0.2482    0.0000 </r>
       <r>    0.8608    0.0000 </r>
       <r>    1.7902    0.0000 </r>
      </set>
      <set comment="kpoint 19">
       <r>  -27.7751    1.0000 </r>
       <r>  -27.7706    1.0000 </r>
       <r>  -27.7698    1.0000 </r>
       <r>  -27.7634    1.0000 </r>
       <r>  -27.7624    1.0000 </r>
       <r>  -27.7484    1.0000 </r>
       <r>  -27.7459    1.0000 </r>
       <r>  -27.7441    1.0000 </r>
       <r>  -27.7298    1.0000 </r>
       <r>  -27.7254    1.0000 </r>
       <r>  -16.7686    1.0000 </r>
       <r>  -15.3340    1.0000 </r>
       <r>  -15.1880    1.0000 </r>
       <r>  -14.8656    1.0000 </r>
       <r>  -11.4281    1.0000 </r>
       <r>   -9.3665    1.0000 </r>
       <r>   -7.3471    1.0000 </r>
       <r>   -6.1206    1.0000 </r>
       <r>   -6.0741    1.0000 </r>
       <r>   -5.5690    1.0000 </r>
       <r>   -5.2138    1.0000 </r>
       <r>   -4.7496    1.0000 </r>
       <r>   -4.7106    1.0000 </r>
       <r>   -3.9828    1.0000 </r>
       <r>   -3.3784    1.0000 </r>
       <r>   -2.7391    1.0000 </r>
       <r>   -1.4832    0.0000 </r>
       <r>   -1.2310    0.0000 </r>
       <r>    0.1676    0.0000 </r>
       <r>    0.3646    0.0000 </r>
       <r>    0.9881    0.0000 </r>
       <r>    1.6280    0.0000 </r>
      </set>
      <set comment="kpoint 20">
       <r>  -27.7748    1.0000 </r>
       <r>  -27.7701    1.0000 </r>
       <r>  -27.7697    1.0000 </r>
       <r>  -27.7638    1.0000 </r>
       <r>  -27.7620    1.0000 </r>
       <r>  -27.7481    1.0000 </r>
       <r>  -27.7472    1.0000 </r>
       <r>  -27.7442    1.0000 </r>
       <r>  -27.7295    1.0000 </r>
       <r>  -27.7256    1.0000 </r>
       <r>  -16.6897    1.0000 </r>
       <r>  -15.3079    1.0000 </r>
       <r>  -15.2548    1.0000 </r>
       <r>  -14.9400    1.0000 </r>
       <r>  -11.3012    1.0000 </r>
       <r>   -9.4744    1.0000 </r>
       <r>   -7.2852    1.0000 </r>
       <r>   -6.3696    1.0000 </r>
       <r>   -6.1746    1.0000 </r>
       <r>   -5.5899    1.0000 </r>
       <r>   -5.2373    1.0000 </r>
       <r>   -4.7862    1.0000 </r>
       <r>   -4.5995    1.0000 </r>
       <r>   -3.9111    1.0000 </r>
       <r>   -3.5804    1.0000 </r>
       <r>   -2.7416    1.0000 </r>
       <r>   -1.4021    0.0000 </r>
       <r>   -1.1600    0.0000 </r>
       <r>    0.5294    0.0000 </r>
       <r>    0.6164    0.0000 </r>
       <r>    1.1733    0.0000 </r>
       <r>    1.4879    0.0000 </r>
      </set>
      <set comment="kpoint 21">
       <r>  -27.7743    1.0000 </r>
       <r>  -27.7698    1.0000 </r>
       <r>  -27.7694    1.0000 </r>
       <r>  -27.7642    1.0000 </r>
       <r>  -27.7614    1.0000 </r>
       <r>  -27.7488    1.0000 </r>
       <r>  -27.7476    1.0000 </r>
       <r>  -27.7444    1.0000 </r>
       <r>  -27.7292    1.0000 </r>
       <r>  -27.7259    1.0000 </r>
       <r>  -16.5816    1.0000 </r>
       <r>  -15.3749    1.0000 </r>
       <r>  -15.2742    1.0000 </r>
       <r>  -15.0000    1.0000 </r>
       <r>  -11.1371    1.0000 </r>
       <r>   -9.6260    1.0000 </r>
       <r>   -7.2058    1.0000 </r>
       <r>   -6.5715    1.0000 </r>
       <r>   -6.2620    1.0000 </r>
       <r>   -5.5730    1.0000 </r>
       <r>   -5.3682    1.0000 </r>
       <r>   -4.9033    1.0000 </r>
       <r>   -4.4857    1.0000 </r>
       <r>   -3.8063    1.0000 </r>
       <r>   -3.7552    1.0000 </r>
       <r>   -2.8135    1.0000 </r>
       <r>   -1.2003    0.0000 </r>
       <r>   -1.0435    0.0000 </r>
       <r>    0.7143    0.0000 </r>
       <r>    1.0163    0.0000 </r>
       <r>    1.3695    0.0000 </r>
       <r>    1.4507    0.0000 </r>
      </set>
      <set comment="kpoint 22">
       <r>  -27.7737    1.0000 </r>
       <r>  -27.7701    1.0000 </r>
       <r>  -27.7687    1.0000 </r>
       <r>  -27.7647    1.0000 </r>
       <r>  -27.7603    1.0000 </r>
       <r>  -27.7507    1.0000 </r>
       <r>  -27.7471    1.0000 </r>
       <r>  -27.7446    1.0000 </r>
       <r>  -27.7287    1.0000 </r>
       <r>  -27.7263    1.0000 </r>
       <r>  -16.4467    1.0000 </r>
       <r>  -15.5396    1.0000 </r>
       <r>  -15.2355    1.0000 </r>
       <r>  -15.0428    1.0000 </r>
       <r>  -10.9441    1.0000 </r>
       <r>   -9.8157    1.0000 </r>
       <r>   -7.1196    1.0000 </r>
       <r>   -6.7226    1.0000 </r>
       <r>   -6.3006    1.0000 </r>
       <r>   -5.5602    1.0000 </r>
       <r>   -5.5340    1.0000 </r>
       <r>   -5.0483    1.0000 </r>
       <r>   -4.3996    1.0000 </r>
       <r>   -3.9014    1.0000 </r>
       <r>   -3.6779    1.0000 </r>
       <r>   -2.9322    1.0000 </r>
       <r>   -0.9493    0.0000 </r>
       <r>   -0.8943    0.0000 </r>
       <r>    0.8959    0.0000 </r>
       <r>    1.1601    0.0000 </r>
       <r>    1.5169    0.0000 </r>
       <r>    1.7027    0.0000 </r>
      </set>
      <set comment="kpoint 23">
       <r>  -27.7730    1.0000 </r>
       <r>  -27.7707    1.0000 </r>
       <r>  -27.7679    1.0000 </r>
       <r>  -27.7654    1.0000 </r>
       <r>  -27.7588    1.0000 </r>
       <r>  -27.7528    1.0000 </r>
       <r>  -27.7466    1.0000 </r>
       <r>  -27.7450    1.0000 </r>
       <r>  -27.7283    1.0000 </r>
       <r>  -27.7268    1.0000 </r>
       <r>  -16.2886    1.0000 </r>
       <r>  -15.7274    1.0000 </r>
       <r>  -15.1945    1.0000 </r>
       <r>  -15.0789    1.0000 </r>
       <r>  -10.7295    1.0000 </r>
       <r>  -10.0329    1.0000 </r>
       <r>   -7.0399    1.0000 </r>
       <r>   -6.8302    1.0000 </r>
       <r>   -6.2671    1.0000 </r>
       <r>   -5.7757    1.0000 </r>
       <r>   -5.4796    1.0000 </r>
       <r>   -5.1919    1.0000 </r>
       <r>   -4.3212    1.0000 </r>
       <r>   -4.0269    1.0000 </r>
       <r>   -3.5360    1.0000 </r>
       <r>   -3.0766    1.0000 </r>
       <r>   -0.7450    0.0000 </r>
       <r>   -0.7366    0.0000 </r>
       <r>    1.0604    0.0000 </r>
       <r>    1.2097    0.0000 </r>
       <r>    1.5749    0.0000 </r>
       <r>    1.6923    0.0000 </r>
      </set>
      <set comment="kpoint 24">
       <r>  -27.7722    1.0000 </r>
       <r>  -27.7714    1.0000 </r>
       <r>  -27.7670    1.0000 </r>
       <r>  -27.7662    1.0000 </r>
       <r>  -27.7569    1.0000 </r>
       <r>  -27.7549    1.0000 </r>
       <r>  -27.7460    1.0000 </r>
       <r>  -27.7455    1.0000 </r>
       <r>  -27.7278    1.0000 </r>
       <r>  -27.7272    1.0000 </r>
       <r>  -16.1116    1.0000 </r>
       <r>  -15.9219    1.0000 </r>
       <r>  -15.1537    1.0000 </r>
       <r>  -15.1151    1.0000 </r>
       <r>  -10.5006    1.0000 </r>
       <r>  -10.2651    1.0000 </r>
       <r>   -6.9725    1.0000 </r>
       <r>   -6.9081    1.0000 </r>
       <r>   -6.1564    1.0000 </r>
       <r>   -5.9839    1.0000 </r>
       <r>   -5.4082    1.0000 </r>
       <r>   -5.3137    1.0000 </r>
       <r>   -4.2360    1.0000 </r>
       <r>   -4.1381    1.0000 </r>
       <r>   -3.3859    1.0000 </r>
       <r>   -3.2310    1.0000 </r>
       <r>   -0.6410    0.0000 </r>
       <r>   -0.6286    0.0000 </r>
       <r>    1.1996    0.0000 </r>
       <r>    1.2601    0.0000 </r>
       <r>    1.5538    0.0000 </r>
       <r>    1.5579    0.0000 </r>
      </set>
      <set comment="kpoint 25">
       <r>  -27.7748    1.0000 </r>
       <r>  -27.7703    1.0000 </r>
       <r>  -27.7698    1.0000 </r>
       <r>  -27.7633    1.0000 </r>
       <r>  -27.7622    1.0000 </r>
       <r>  -27.7483    1.0000 </r>
       <r>  -27.7461    1.0000 </r>
       <r>  -27.7447    1.0000 </r>
       <r>  -27.7297    1.0000 </r>
       <r>  -27.7256    1.0000 </r>
       <r>  -16.7400    1.0000 </r>
       <r>  -15.3501    1.0000 </r>
       <r>  -15.3131    1.0000 </r>
       <r>  -14.8264    1.0000 </r>
       <r>  -11.2778    1.0000 </r>
       <r>   -9.3820    1.0000 </r>
       <r>   -7.3226    1.0000 </r>
       <r>   -6.0569    1.0000 </r>
       <r>   -5.8255    1.0000 </r>
       <r>   -5.7646    1.0000 </r>
       <r>   -5.3972    1.0000 </r>
       <r>   -4.8590    1.0000 </r>
       <r>   -4.6934    1.0000 </r>
       <r>   -3.9081    1.0000 </r>
       <r>   -3.2438    1.0000 </r>
       <r>   -3.0211    1.0000 </r>
       <r>   -1.1410    0.0000 </r>
       <r>   -1.0110    0.0000 </r>
       <r>    0.1576    0.0000 </r>
       <r>    0.2879    0.0000 </r>
       <r>    0.9465    0.0000 </r>
       <r>    1.6503    0.0000 </r>
      </set>
      <set comment="kpoint 26">
       <r>  -27.7748    1.0000 </r>
       <r>  -27.7702    1.0000 </r>
       <r>  -27.7699    1.0000 </r>
       <r>  -27.7633    1.0000 </r>
       <r>  -27.7622    1.0000 </r>
       <r>  -27.7482    1.0000 </r>
       <r>  -27.7465    1.0000 </r>
       <r>  -27.7445    1.0000 </r>
       <r>  -27.7297    1.0000 </r>
       <r>  -27.7256    1.0000 </r>
       <r>  -16.7248    1.0000 </r>
       <r>  -15.3560    1.0000 </r>
       <r>  -15.3085    1.0000 </r>
       <r>  -14.8426    1.0000 </r>
       <r>  -11.2644    1.0000 </r>
       <r>   -9.4091    1.0000 </r>
       <r>   -7.2980    1.0000 </r>
       <r>   -6.0881    1.0000 </r>
       <r>   -6.0873    1.0000 </r>
       <r>   -5.5062    1.0000 </r>
       <r>   -5.4389    1.0000 </r>
       <r>   -4.7870    1.0000 </r>
       <r>   -4.7168    1.0000 </r>
       <r>   -3.8947    1.0000 </r>
       <r>   -3.3806    1.0000 </r>
       <r>   -2.9048    1.0000 </r>
       <r>   -1.1307    0.0000 </r>
       <r>   -1.1245    0.0000 </r>
       <r>    0.3208    0.0000 </r>
       <r>    0.3209    0.0000 </r>
       <r>    0.9889    0.0000 </r>
       <r>    1.5533    0.0000 </r>
      </set>
      <set comment="kpoint 27">
       <r>  -27.7748    1.0000 </r>
       <r>  -27.7700    1.0000 </r>
       <r>  -27.7698    1.0000 </r>
       <r>  -27.7631    1.0000 </r>
       <r>  -27.7623    1.0000 </r>
       <r>  -27.7480    1.0000 </r>
       <r>  -27.7475    1.0000 </r>
       <r>  -27.7443    1.0000 </r>
       <r>  -27.7295    1.0000 </r>
       <r>  -27.7257    1.0000 </r>
       <r>  -16.6798    1.0000 </r>
       <r>  -15.3764    1.0000 </r>
       <r>  -15.2950    1.0000 </r>
       <r>  -14.8870    1.0000 </r>
       <r>  -11.2241    1.0000 </r>
       <r>   -9.4896    1.0000 </r>
       <r>   -7.2259    1.0000 </r>
       <r>   -6.3476    1.0000 </r>
       <r>   -6.1758    1.0000 </r>
       <r>   -5.4959    1.0000 </r>
       <r>   -5.2731    1.0000 </r>
       <r>   -4.7863    1.0000 </r>
       <r>   -4.6481    1.0000 </r>
       <r>   -3.8480    1.0000 </r>
       <r>   -3.5794    1.0000 </r>
       <r>   -2.7653    1.0000 </r>
       <r>   -1.3186    0.0000 </r>
       <r>   -1.0963    0.0000 </r>
       <r>    0.4102    0.0000 </r>
       <r>    0.6603    0.0000 </r>
       <r>    1.1120    0.0000 </r>
       <r>    1.4258    0.0000 </r>
      </set>
      <set comment="kpoint 28">
       <r>  -27.7747    1.0000 </r>
       <r>  -27.7702    1.0000 </r>
       <r>  -27.7691    1.0000 </r>
       <r>  -27.7628    1.0000 </r>
       <r>  -27.7624    1.0000 </r>
       <r>  -27.7488    1.0000 </r>
       <r>  -27.7476    1.0000 </r>
       <r>  -27.7442    1.0000 </r>
       <r>  -27.7292    1.0000 </r>
       <r>  -27.7259    1.0000 </r>
       <r>  -16.6060    1.0000 </r>
       <r>  -15.4198    1.0000 </r>
       <r>  -15.2739    1.0000 </r>
       <r>  -14.9474    1.0000 </r>
       <r>  -11.1563    1.0000 </r>
       <r>   -9.6200    1.0000 </r>
       <r>   -7.1121    1.0000 </r>
       <r>   -6.5558    1.0000 </r>
       <r>   -6.2991    1.0000 </r>
       <r>   -5.5148    1.0000 </r>
       <r>   -5.1454    1.0000 </r>
       <r>   -4.8989    1.0000 </r>
       <r>   -4.5283    1.0000 </r>
       <r>   -3.7566    1.0000 </r>
       <r>   -3.7543    1.0000 </r>
       <r>   -2.6842    1.0000 </r>
       <r>   -1.4327    0.0000 </r>
       <r>   -1.0323    0.0000 </r>
       <r>    0.5361    0.0000 </r>
       <r>    0.9598    0.0000 </r>
       <r>    1.2965    0.0000 </r>
       <r>    1.4005    0.0000 </r>
      </set>
      <set comment="kpoint 29">
       <r>  -27.7745    1.0000 </r>
       <r>  -27.7706    1.0000 </r>
       <r>  -27.7683    1.0000 </r>
       <r>  -27.7630    1.0000 </r>
       <r>  -27.7618    1.0000 </r>
       <r>  -27.7504    1.0000 </r>
       <r>  -27.7472    1.0000 </r>
       <r>  -27.7442    1.0000 </r>
       <r>  -27.7289    1.0000 </r>
       <r>  -27.7262    1.0000 </r>
       <r>  -16.5055    1.0000 </r>
       <r>  -15.4968    1.0000 </r>
       <r>  -15.2470    1.0000 </r>
       <r>  -15.0073    1.0000 </r>
       <r>  -11.0605    1.0000 </r>
       <r>   -9.7916    1.0000 </r>
       <r>   -6.9719    1.0000 </r>
       <r>   -6.7053    1.0000 </r>
       <r>   -6.4117    1.0000 </r>
       <r>   -5.5020    1.0000 </r>
       <r>   -5.1505    1.0000 </r>
       <r>   -5.0452    1.0000 </r>
       <r>   -4.4502    1.0000 </r>
       <r>   -3.8930    1.0000 </r>
       <r>   -3.6229    1.0000 </r>
       <r>   -2.6740    1.0000 </r>
       <r>   -1.4092    0.0000 </r>
       <r>   -0.9429    0.0000 </r>
       <r>    0.6817    0.0000 </r>
       <r>    1.0306    0.0000 </r>
       <r>    1.4977    0.0000 </r>
       <r>    1.6233    0.0000 </r>
      </set>
      <set comment="kpoint 30">
       <r>  -27.7742    1.0000 </r>
       <r>  -27.7712    1.0000 </r>
       <r>  -27.7675    1.0000 </r>
       <r>  -27.7635    1.0000 </r>
       <r>  -27.7607    1.0000 </r>
       <r>  -27.7521    1.0000 </r>
       <r>  -27.7467    1.0000 </r>
       <r>  -27.7444    1.0000 </r>
       <r>  -27.7285    1.0000 </r>
       <r>  -27.7264    1.0000 </r>
       <r>  -16.3813    1.0000 </r>
       <r>  -15.6114    1.0000 </r>
       <r>  -15.2167    1.0000 </r>
       <r>  -15.0555    1.0000 </r>
       <r>  -10.9366    1.0000 </r>
       <r>   -9.9909    1.0000 </r>
       <r>   -6.8531    1.0000 </r>
       <r>   -6.8002    1.0000 </r>
       <r>   -6.4460    1.0000 </r>
       <r>   -5.4740    1.0000 </r>
       <r>   -5.3026    1.0000 </r>
       <r>   -5.1729    1.0000 </r>
       <r>   -4.3967    1.0000 </r>
       <r>   -4.0059    1.0000 </r>
       <r>   -3.4651    1.0000 </r>
       <r>   -2.7302    1.0000 </r>
       <r>   -1.2666    0.0000 </r>
       <r>   -0.8503    0.0000 </r>
       <r>    0.8375    0.0000 </r>
       <r>    1.0315    0.0000 </r>
       <r>    1.6492    0.0000 </r>
       <r>    1.9004    0.0000 </r>
      </set>
      <set comment="kpoint 31">
       <r>  -27.7737    1.0000 </r>
       <r>  -27.7718    1.0000 </r>
       <r>  -27.7666    1.0000 </r>
       <r>  -27.7641    1.0000 </r>
       <r>  -27.7592    1.0000 </r>
       <r>  -27.7540    1.0000 </r>
       <r>  -27.7461    1.0000 </r>
       <r>  -27.7447    1.0000 </r>
       <r>  -27.7280    1.0000 </r>
       <r>  -27.7268    1.0000 </r>
       <r>  -16.2377    1.0000 </r>
       <r>  -15.7558    1.0000 </r>
       <r>  -15.1852    1.0000 </r>
       <r>  -15.0924    1.0000 </r>
       <r>  -10.7854    1.0000 </r>
       <r>  -10.2026    1.0000 </r>
       <r>   -6.8496    1.0000 </r>
       <r>   -6.8274    1.0000 </r>
       <r>   -6.3238    1.0000 </r>
       <r>   -5.5497    1.0000 </r>
       <r>   -5.4395    1.0000 </r>
       <r>   -5.2680    1.0000 </r>
       <r>   -4.3440    1.0000 </r>
       <r>   -4.1064    1.0000 </r>
       <r>   -3.2992    1.0000 </r>
       <r>   -2.8371    1.0000 </r>
       <r>   -1.0720    0.0000 </r>
       <r>   -0.7910    0.0000 </r>
       <r>    0.9953    0.0000 </r>
       <r>    1.0741    0.0000 </r>
       <r>    1.6932    0.0000 </r>
       <r>    1.7937    0.0000 </r>
      </set>
      <set comment="kpoint 32">
       <r>  -27.7732    1.0000 </r>
       <r>  -27.7725    1.0000 </r>
       <r>  -27.7657    1.0000 </r>
       <r>  -27.7648    1.0000 </r>
       <r>  -27.7576    1.0000 </r>
       <r>  -27.7558    1.0000 </r>
       <r>  -27.7456    1.0000 </r>
       <r>  -27.7451    1.0000 </r>
       <r>  -27.7276    1.0000 </r>
       <r>  -27.7272    1.0000 </r>
       <r>  -16.0802    1.0000 </r>
       <r>  -15.9163    1.0000 </r>
       <r>  -15.1541    1.0000 </r>
       <r>  -15.1238    1.0000 </r>
       <r>  -10.6091    1.0000 </r>
       <r>  -10.4124    1.0000 </r>
       <r>   -6.8632    1.0000 </r>
       <r>   -6.8498    1.0000 </r>
       <r>   -6.0939    1.0000 </r>
       <r>   -5.8244    1.0000 </r>
       <r>   -5.3982    1.0000 </r>
       <r>   -5.3432    1.0000 </r>
       <r>   -4.2787    1.0000 </r>
       <r>   -4.1983    1.0000 </r>
       <r>   -3.1339    1.0000 </r>
       <r>   -2.9765    1.0000 </r>
       <r>   -0.9000    0.0000 </r>
       <r>   -0.8015    0.0000 </r>
       <r>    1.1251    0.0000 </r>
       <r>    1.1434    0.0000 </r>
       <r>    1.6440    0.0000 </r>
       <r>    1.6578    0.0000 </r>
      </set>
      <set comment="kpoint 33">
       <r>  -27.7740    1.0000 </r>
       <r>  -27.7700    1.0000 </r>
       <r>  -27.7695    1.0000 </r>
       <r>  -27.7642    1.0000 </r>
       <r>  -27.7608    1.0000 </r>
       <r>  -27.7483    1.0000 </r>
       <r>  -27.7478    1.0000 </r>
       <r>  -27.7451    1.0000 </r>
       <r>  -27.7293    1.0000 </r>
       <r>  -27.7261    1.0000 </r>
       <r>  -16.6123    1.0000 </r>
       <r>  -15.5798    1.0000 </r>
       <r>  -15.2561    1.0000 </r>
       <r>  -14.8865    1.0000 </r>
       <r>  -10.9693    1.0000 </r>
       <r>   -9.5348    1.0000 </r>
       <r>   -7.2099    1.0000 </r>
       <r>   -6.1340    1.0000 </r>
       <r>   -6.0668    1.0000 </r>
       <r>   -6.0056    1.0000 </r>
       <r>   -5.3235    1.0000 </r>
       <r>   -4.7687    1.0000 </r>
       <r>   -4.6888    1.0000 </r>
       <r>   -3.7625    1.0000 </r>
       <r>   -3.5018    1.0000 </r>
       <r>   -3.1263    1.0000 </r>
       <r>   -0.9556    0.0000 </r>
       <r>   -0.6451    0.0000 </r>
       <r>    0.3973    0.0000 </r>
       <r>    0.8102    0.0000 </r>
       <r>    1.0787    0.0000 </r>
       <r>    1.3814    0.0000 </r>
      </set>
      <set comment="kpoint 34">
       <r>  -27.7741    1.0000 </r>
       <r>  -27.7701    1.0000 </r>
       <r>  -27.7693    1.0000 </r>
       <r>  -27.7640    1.0000 </r>
       <r>  -27.7608    1.0000 </r>
       <r>  -27.7486    1.0000 </r>
       <r>  -27.7477    1.0000 </r>
       <r>  -27.7449    1.0000 </r>
       <r>  -27.7292    1.0000 </r>
       <r>  -27.7261    1.0000 </r>
       <r>  -16.5986    1.0000 </r>
       <r>  -15.5816    1.0000 </r>
       <r>  -15.2529    1.0000 </r>
       <r>  -14.8975    1.0000 </r>
       <r>  -10.9715    1.0000 </r>
       <r>   -9.5681    1.0000 </r>
       <r>   -7.1749    1.0000 </r>
       <r>   -6.3047    1.0000 </r>
       <r>   -6.1602    1.0000 </r>
       <r>   -5.7389    1.0000 </r>
       <r>   -5.3658    1.0000 </r>
       <r>   -4.8022    1.0000 </r>
       <r>   -4.6313    1.0000 </r>
       <r>   -3.7425    1.0000 </r>
       <r>   -3.6025    1.0000 </r>
       <r>   -3.0195    1.0000 </r>
       <r>   -0.9470    0.0000 </r>
       <r>   -0.7733    0.0000 </r>
       <r>    0.4181    0.0000 </r>
       <r>    0.9237    0.0000 </r>
       <r>    1.1199    0.0000 </r>
       <r>    1.3315    0.0000 </r>
      </set>
      <set comment="kpoint 35">
       <r>  -27.7743    1.0000 </r>
       <r>  -27.7704    1.0000 </r>
       <r>  -27.7688    1.0000 </r>
       <r>  -27.7636    1.0000 </r>
       <r>  -27.7610    1.0000 </r>
       <r>  -27.7495    1.0000 </r>
       <r>  -27.7475    1.0000 </r>
       <r>  -27.7447    1.0000 </r>
       <r>  -27.7290    1.0000 </r>
       <r>  -27.7262    1.0000 </r>
       <r>  -16.5578    1.0000 </r>
       <r>  -15.5889    1.0000 </r>
       <r>  -15.2436    1.0000 </r>
       <r>  -14.9287    1.0000 </r>
       <r>  -10.9750    1.0000 </r>
       <r>   -9.6645    1.0000 </r>
       <r>   -7.0731    1.0000 </r>
       <r>   -6.5202    1.0000 </r>
       <r>   -6.2394    1.0000 </r>
       <r>   -5.4500    1.0000 </r>
       <r>   -5.4336    1.0000 </r>
       <r>   -4.8982    1.0000 </r>
       <r>   -4.5244    1.0000 </r>
       <r>   -3.7624    1.0000 </r>
       <r>   -3.6750    1.0000 </r>
       <r>   -2.8465    1.0000 </r>
       <r>   -1.0397    0.0000 </r>
       <r>   -0.9219    0.0000 </r>
       <r>    0.4764    0.0000 </r>
       <r>    1.0600    0.0000 </r>
       <r>    1.2393    0.0000 </r>
       <r>    1.3685    0.0000 </r>
[...]
       <r>    1.2848    0.0000 </r>
       <r>    1.4043    0.0000 </r>
      </set>
      <set comment="kpoint 54">
       <r>  -27.7742    1.0000 </r>
       <r>  -27.7737    1.0000 </r>
       <r>  -27.7639    1.0000 </r>
       <r>  -27.7630    1.0000 </r>
       <r>  -27.7587    1.0000 </r>
       <r>  -27.7571    1.0000 </r>
       <r>  -27.7451    1.0000 </r>
       <r>  -27.7447    1.0000 </r>
       <r>  -27.7274    1.0000 </r>
       <r>  -27.7271    1.0000 </r>
       <r>  -16.0691    1.0000 </r>
       <r>  -15.9442    1.0000 </r>
       <r>  -15.1394    1.0000 </r>
       <r>  -15.1139    1.0000 </r>
       <r>  -10.7230    1.0000 </r>
       <r>  -10.5736    1.0000 </r>
       <r>   -6.8194    1.0000 </r>
       <r>   -6.7739    1.0000 </r>
       <r>   -5.8417    1.0000 </r>
       <r>   -5.6415    1.0000 </r>
       <r>   -5.2971    1.0000 </r>
       <r>   -5.1438    1.0000 </r>
       <r>   -4.3210    1.0000 </r>
       <r>   -4.2560    1.0000 </r>
       <r>   -2.7473    1.0000 </r>
       <r>   -2.6204    1.0000 </r>
       <r>   -1.3270    0.0000 </r>
       <r>   -1.1246    0.0000 </r>
       <r>    1.0938    0.0000 </r>
       <r>    1.1339    0.0000 </r>
       <r>    1.3566    0.0000 </r>
       <r>    1.4045    0.0000 </r>
      </set>
      <set comment="kpoint 55">
       <r>  -27.7744    1.0000 </r>
       <r>  -27.7741    1.0000 </r>
       <r>  -27.7631    1.0000 </r>
       <r>  -27.7624    1.0000 </r>
       <r>  -27.7593    1.0000 </r>
       <r>  -27.7581    1.0000 </r>
       <r>  -27.7448    1.0000 </r>
       <r>  -27.7445    1.0000 </r>
       <r>  -27.7273    1.0000 </r>
       <r>  -27.7271    1.0000 </r>
       <r>  -16.0116    1.0000 </r>
       <r>  -15.9310    1.0000 </r>
       <r>  -15.1487    1.0000 </r>
       <r>  -15.1358    1.0000 </r>
       <r>  -10.7813    1.0000 </r>
       <r>  -10.6892    1.0000 </r>
       <r>   -6.8399    1.0000 </r>
       <r>   -6.8094    1.0000 </r>
       <r>   -5.7950    1.0000 </r>
       <r>   -5.6936    1.0000 </r>
       <r>   -5.1536    1.0000 </r>
       <r>   -5.0152    1.0000 </r>
       <r>   -4.3496    1.0000 </r>
       <r>   -4.3041    1.0000 </r>
       <r>   -2.6231    1.0000 </r>
       <r>   -2.5505    1.0000 </r>
       <r>   -1.4680    0.0000 </r>
       <r>   -1.3139    0.0000 </r>
       <r>    1.1607    0.0000 </r>
       <r>    1.2004    0.0000 </r>
       <r>    1.3873    0.0000 </r>
       <r>    1.4009    0.0000 </r>
      </set>
      <set comment="kpoint 56">
       <r>  -27.7745    1.0000 </r>
       <r>  -27.7744    1.0000 </r>
       <r>  -27.7625    1.0000 </r>
       <r>  -27.7621    1.0000 </r>
       <r>  -27.7594    1.0000 </r>
       <r>  -27.7589    1.0000 </r>
       <r>  -27.7446    1.0000 </r>
       <r>  -27.7445    1.0000 </r>
       <r>  -27.7272    1.0000 </r>
       <r>  -27.7271    1.0000 </r>
       <r>  -15.9651    1.0000 </r>
       <r>  -15.9371    1.0000 </r>
       <r>  -15.1535    1.0000 </r>
       <r>  -15.1498    1.0000 </r>
       <r>  -10.7970    1.0000 </r>
       <r>  -10.7658    1.0000 </r>
       <r>   -6.8479    1.0000 </r>
       <r>   -6.8376    1.0000 </r>
       <r>   -5.7610    1.0000 </r>
       <r>   -5.7304    1.0000 </r>
       <r>   -5.0297    1.0000 </r>
       <r>   -4.9755    1.0000 </r>
       <r>   -4.3556    1.0000 </r>
       <r>   -4.3382    1.0000 </r>
       <r>   -2.5527    1.0000 </r>
       <r>   -2.5309    1.0000 </r>
       <r>   -1.5083    0.0000 </r>
       <r>   -1.4517    0.0000 </r>
       <r>    1.2035    0.0000 </r>
       <r>    1.2359    0.0000 </r>
       <r>    1.3871    0.0000 </r>
       <r>    1.4058    0.0000 </r>
      </set>
     </set>
    </set>
   </array>
  </eigenvalues>
  <separator name="orbital magnetization" >
   <v name="MAGDIPOLOUT">      0.00000000      0.00000000      0.00000000</v>
  </separator>
  <dos>
   <i name="efermi">     -2.36622162 </i>
   <total>
    <array>
     <dimension dim="1">gridpoints</dimension>
     <dimension dim="2">spin</dimension>
     <field>energy</field>
     <field>total</field>
     <field>integrated</field>
     <set>
      <set comment="spin 1">
       <r>   -29.2663     0.0000     0.0000 </r>
       <r>   -29.1570     0.0000     0.0000 </r>
       <r>   -29.0477     0.0000     0.0000 </r>
       <r>   -28.9384     0.0000     0.0000 </r>
       <r>   -28.8291     0.0000     0.0000 </r>
       <r>   -28.7198     0.0000     0.0000 </r>
       <r>   -28.6105     0.0000     0.0000 </r>
       <r>   -28.5012     0.0000     0.0000 </r>
       <r>   -28.3919     0.0000     0.0000 </r>
       <r>   -28.2826     0.0000     0.0000 </r>
       <r>   -28.1733     0.0000     0.0000 </r>
       <r>   -28.0640     0.0000     0.0000 </r>
       <r>   -27.9547     0.0000     0.0000 </r>
       <r>   -27.8454     0.0000     0.0000 </r>
       <r>   -27.7361   142.7173    15.5982 </r>
       <r>   -27.6268    40.2749    20.0000 </r>
       <r>   -27.5176     0.0000    20.0000 </r>
       <r>   -27.4083     0.0000    20.0000 </r>
       <r>   -27.2990     0.0000    20.0000 </r>
       <r>   -27.1897     0.0000    20.0000 </r>
       <r>   -27.0804     0.0000    20.0000 </r>
       <r>   -26.9711     0.0000    20.0000 </r>
       <r>   -26.8618     0.0000    20.0000 </r>
       <r>   -26.7525     0.0000    20.0000 </r>
       <r>   -26.6432     0.0000    20.0000 </r>
       <r>   -26.5339     0.0000    20.0000 </r>
       <r>   -26.4246     0.0000    20.0000 </r>
       <r>   -26.3153     0.0000    20.0000 </r>
       <r>   -26.2060     0.0000    20.0000 </r>
       <r>   -26.0967     0.0000    20.0000 </r>
       <r>   -25.9874     0.0000    20.0000 </r>
       <r>   -25.8781     0.0000    20.0000 </r>
       <r>   -25.7688     0.0000    20.0000 </r>
       <r>   -25.6596     0.0000    20.0000 </r>
       <r>   -25.5503     0.0000    20.0000 </r>
       <r>   -25.4410     0.0000    20.0000 </r>
       <r>   -25.3317     0.0000    20.0000 </r>
       <r>   -25.2224     0.0000    20.0000 </r>
       <r>   -25.1131     0.0000    20.0000 </r>
       <r>   -25.0038     0.0000    20.0000 </r>
       <r>   -24.8945     0.0000    20.0000 </r>
       <r>   -24.7852     0.0000    20.0000 </r>
       <r>   -24.6759     0.0000    20.0000 </r>
       <r>   -24.5666     0.0000    20.0000 </r>
       <r>   -24.4573     0.0000    20.0000 </r>
       <r>   -24.3480     0.0000    20.0000 </r>
       <r>   -24.2387     0.0000    20.0000 </r>
       <r>   -24.1294     0.0000    20.0000 </r>
       <r>   -24.0201     0.0000    20.0000 </r>
       <r>   -23.9108     0.0000    20.0000 </r>
       <r>   -23.8016     0.0000    20.0000 </r>
       <r>   -23.6923     0.0000    20.0000 </r>
       <r>   -23.5830     0.0000    20.0000 </r>
       <r>   -23.4737     0.0000    20.0000 </r>
       <r>   -23.3644     0.0000    20.0000 </r>
       <r>   -23.2551     0.0000    20.0000 </r>
       <r>   -23.1458     0.0000    20.0000 </r>
       <r>   -23.0365     0.0000    20.0000 </r>
       <r>   -22.9272     0.0000    20.0000 </r>
       <r>   -22.8179     0.0000    20.0000 </r>
       <r>   -22.7086     0.0000    20.0000 </r>
       <r>   -22.5993     0.0000    20.0000 </r>
       <r>   -22.4900     0.0000    20.0000 </r>
       <r>   -22.3807     0.0000    20.0000 </r>
       <r>   -22.2714     0.0000    20.0000 </r>
       <r>   -22.1621     0.0000    20.0000 </r>
       <r>   -22.0528     0.0000    20.0000 </r>
       <r>   -21.9435     0.0000    20.0000 </r>
       <r>   -21.8343     0.0000    20.0000 </r>
       <r>   -21.7250     0.0000    20.0000 </r>
       <r>   -21.6157     0.0000    20.0000 </r>
       <r>   -21.5064     0.0000    20.0000 </r>
       <r>   -21.3971     0.0000    20.0000 </r>
       <r>   -21.2878     0.0000    20.0000 </r>
       <r>   -21.1785     0.0000    20.0000 </r>
       <r>   -21.0692     0.0000    20.0000 </r>
       <r>   -20.9599     0.0000    20.0000 </r>
       <r>   -20.8506     0.0000    20.0000 </r>
       <r>   -20.7413     0.0000    20.0000 </r>
       <r>   -20.6320     0.0000    20.0000 </r>
       <r>   -20.5227     0.0000    20.0000 </r>
       <r>   -20.4134     0.0000    20.0000 </r>
       <r>   -20.3041     0.0000    20.0000 </r>
       <r>   -20.1948     0.0000    20.0000 </r>
       <r>   -20.0855     0.0000    20.0000 </r>
       <r>   -19.9763     0.0000    20.0000 </r>
       <r>   -19.8670     0.0000    20.0000 </r>
       <r>   -19.7577     0.0000    20.0000 </r>
       <r>   -19.6484     0.0000    20.0000 </r>
       <r>   -19.5391     0.0000    20.0000 </r>
       <r>   -19.4298     0.0000    20.0000 </r>
       <r>   -19.3205     0.0000    20.0000 </r>
       <r>   -19.2112     0.0000    20.0000 </r>
       <r>   -19.1019     0.0000    20.0000 </r>
       <r>   -18.9926     0.0000    20.0000 </r>
       <r>   -18.8833     0.0000    20.0000 </r>
       <r>   -18.7740     0.0000    20.0000 </r>
       <r>   -18.6647     0.0000    20.0000 </r>
       <r>   -18.5554     0.0000    20.0000 </r>
       <r>   -18.4461     0.0000    20.0000 </r>
       <r>   -18.3368     0.0000    20.0000 </r>
       <r>   -18.2275     0.0000    20.0000 </r>
       <r>   -18.1183     0.0000    20.0000 </r>
       <r>   -18.0090     0.0000    20.0000 </r>
       <r>   -17.8997     0.0000    20.0000 </r>
       <r>   -17.7904     0.0000    20.0000 </r>
       <r>   -17.6811     0.0000    20.0000 </r>
       <r>   -17.5718     0.0000    20.0000 </r>
       <r>   -17.4625     0.0000    20.0000 </r>
       <r>   -17.3532     0.0000    20.0000 </r>
       <r>   -17.2439     0.0000    20.0000 </r>
       <r>   -17.1346     0.0000    20.0000 </r>
       <r>   -17.0253     0.0000    20.0000 </r>
       <r>   -16.9160     0.0386    20.0042 </r>
       <r>   -16.8067     1.7848    20.1993 </r>
       <r>   -16.6974     1.7876    20.3947 </r>
       <r>   -16.5881     2.1057    20.6248 </r>
       <r>   -16.4788     1.8857    20.8309 </r>
       <r>   -16.3695     2.1978    21.0711 </r>
       <r>   -16.2603     2.2971    21.3222 </r>
       <r>   -16.1510     2.3215    21.5759 </r>
       <r>   -16.0417     2.9373    21.8969 </r>
       <r>   -15.9324     3.7918    22.3113 </r>
       <r>   -15.8231     2.8950    22.6277 </r>
       <r>   -15.7138     2.9883    22.9543 </r>
       <r>   -15.6045     1.5773    23.1267 </r>
       <r>   -15.4952     1.9396    23.3387 </r>
       <r>   -15.3859     1.4278    23.4948 </r>
       <r>   -15.2766     6.1905    24.1714 </r>
       <r>   -15.1673     8.9912    25.1541 </r>
       <r>   -15.0580    13.2232    26.5993 </r>
       <r>   -14.9487     7.8611    27.4585 </r>
       <r>   -14.8394     3.2234    27.8108 </r>
       <r>   -14.7301     1.7009    27.9967 </r>
       <r>   -14.6208     0.0303    28.0000 </r>
       <r>   -14.5115     0.0000    28.0000 </r>
       <r>   -14.4022     0.0000    28.0000 </r>
       <r>   -14.2930     0.0000    28.0000 </r>
       <r>   -14.1837     0.0000    28.0000 </r>
       <r>   -14.0744     0.0000    28.0000 </r>
       <r>   -13.9651     0.0000    28.0000 </r>
       <r>   -13.8558     0.0000    28.0000 </r>
       <r>   -13.7465     0.0000    28.0000 </r>
       <r>   -13.6372     0.0000    28.0000 </r>
       <r>   -13.5279     0.0000    28.0000 </r>
       <r>   -13.4186     0.0000    28.0000 </r>
       <r>   -13.3093     0.0000    28.0000 </r>
       <r>   -13.2000     0.0000    28.0000 </r>
       <r>   -13.0907     0.0000    28.0000 </r>
       <r>   -12.9814     0.0000    28.0000 </r>
       <r>   -12.8721     0.0000    28.0000 </r>
       <r>   -12.7628     0.0000    28.0000 </r>
       <r>   -12.6535     0.0000    28.0000 </r>
       <r>   -12.5442     0.0000    28.0000 </r>
       <r>   -12.4350     0.0000    28.0000 </r>
       <r>   -12.3257     0.0000    28.0000 </r>
       <r>   -12.2164     0.0000    28.0000 </r>
       <r>   -12.1071     0.0000    28.0000 </r>
       <r>   -11.9978     0.0000    28.0000 </r>
       <r>   -11.8885     0.0000    28.0000 </r>
       <r>   -11.7792     0.0425    28.0046 </r>
       <r>   -11.6699     0.6683    28.0777 </r>
       <r>   -11.5606     0.5561    28.1385 </r>
       <r>   -11.4513     0.7307    28.2183 </r>
       <r>   -11.3420     0.9121    28.3180 </r>
       <r>   -11.2327     1.0355    28.4312 </r>
       <r>   -11.1234     1.5249    28.5979 </r>
       <r>   -11.0141     0.4438    28.6464 </r>
       <r>   -10.9048     3.1591    28.9916 </r>
       <r>   -10.7955     2.0096    29.2113 </r>
       <r>   -10.6862     3.9023    29.6378 </r>
       <r>   -10.5770     2.4008    29.9002 </r>
       <r>   -10.4677     1.6623    30.0818 </r>
       <r>   -10.3584     2.4571    30.3504 </r>
       <r>   -10.2491     1.2466    30.4866 </r>
       <r>   -10.1398     1.6979    30.6722 </r>
       <r>   -10.0305     1.2128    30.8048 </r>
       <r>    -9.9212     1.3480    30.9521 </r>
       <r>    -9.8119     1.3152    31.0958 </r>
       <r>    -9.7026     1.3396    31.2423 </r>
       <r>    -9.5933     1.5830    31.4153 </r>
       <r>    -9.4840     1.3478    31.5626 </r>
       <r>    -9.3747     1.4388    31.7198 </r>
       <r>    -9.2654     1.6496    31.9001 </r>
       <r>    -9.1561     0.9136    32.0000 </r>
       <r>    -9.0468     0.0000    32.0000 </r>
       <r>    -8.9375     0.0000    32.0000 </r>
       <r>    -8.8282     0.0000    32.0000 </r>
       <r>    -8.7189     0.0000    32.0000 </r>
       <r>    -8.6097     0.0000    32.0000 </r>
       <r>    -8.5004     0.0000    32.0000 </r>
       <r>    -8.3911     0.0000    32.0000 </r>
       <r>    -8.2818     0.0000    32.0000 </r>
       <r>    -8.1725     0.0000    32.0000 </r>
       <r>    -8.0632     0.0000    32.0000 </r>
       <r>    -7.9539     0.0000    32.0000 </r>
       <r>    -7.8446     0.0000    32.0000 </r>
       <r>    -7.7353     0.0000    32.0000 </r>
       <r>    -7.6260     0.0000    32.0000 </r>
       <r>    -7.5167     0.0000    32.0000 </r>
       <r>    -7.4074     1.8018    32.1969 </r>
       <r>    -7.2981     2.4766    32.4676 </r>
       <r>    -7.1888     2.1854    32.7065 </r>
       <r>    -7.0795     1.8100    32.9043 </r>
       <r>    -6.9702     1.9275    33.1150 </r>
       <r>    -6.8609     2.8853    33.4303 </r>
       <r>    -6.7517    10.7868    34.6092 </r>
       <r>    -6.6424     4.3910    35.0892 </r>
       <r>    -6.5331     2.0140    35.3093 </r>
       <r>    -6.4238     1.9632    35.5238 </r>
       <r>    -6.3145     2.4950    35.7965 </r>
       <r>    -6.2052     4.4829    36.2865 </r>
       <r>    -6.0959     7.1448    37.0674 </r>
       <r>    -5.9866     4.0800    37.5133 </r>
       <r>    -5.8773     4.0157    37.9522 </r>
       <r>    -5.7680     3.8354    38.3714 </r>
       <r>    -5.6587     4.7186    38.8871 </r>
       <r>    -5.5494     5.0304    39.4369 </r>
       <r>    -5.4401     7.5790    40.2652 </r>
       <r>    -5.3308     7.9393    41.1330 </r>
       <r>    -5.2215     6.8755    41.8844 </r>
       <r>    -5.1122     6.0677    42.5476 </r>
       <r>    -5.0029     5.3608    43.1335 </r>
       <r>    -4.8937     3.2409    43.4877 </r>
       <r>    -4.7844     2.8526    43.7995 </r>
       <r>    -4.6751     3.2399    44.1536 </r>
       <r>    -4.5658     3.3811    44.5231 </r>
       <r>    -4.4565     2.2171    44.7655 </r>
       <r>    -4.3472     5.8645    45.4064 </r>
       <r>    -4.2379     6.5218    46.1192 </r>
       <r>    -4.1286     3.5755    46.5100 </r>
       <r>    -4.0193     4.9857    47.0549 </r>
       <r>    -3.9100     3.6724    47.4563 </r>
       <r>    -3.8007     3.2581    47.8124 </r>
       <r>    -3.6914     3.4986    48.1947 </r>
       <r>    -3.5821     2.8028    48.5011 </r>
       <r>    -3.4728     2.8071    48.8079 </r>
       <r>    -3.3635     3.1693    49.1543 </r>
       <r>    -3.2542     2.4902    49.4264 </r>
       <r>    -3.1449     2.6889    49.7203 </r>
       <r>    -3.0356     2.6261    50.0074 </r>
       <r>    -2.9264     3.6221    50.4032 </r>
       <r>    -2.8171     3.7105    50.8088 </r>
       <r>    -2.7078     5.0548    51.3612 </r>
       <r>    -2.5985     3.5618    51.7505 </r>
       <r>    -2.4892     2.2821    51.9999 </r>
       <r>    -2.3799     0.0006    52.0000 </r>
       <r>    -2.2706     0.0000    52.0000 </r>
       <r>    -2.1613     0.0000    52.0000 </r>
       <r>    -2.0520     0.0000    52.0000 </r>
       <r>    -1.9427     0.0000    52.0000 </r>
       <r>    -1.8334     0.0005    52.0001 </r>
       <r>    -1.7241     0.0989    52.0109 </r>
       <r>    -1.6148     0.7256    52.0902 </r>
       <r>    -1.5055     0.3675    52.1303 </r>
       <r>    -1.3962     4.9206    52.6681 </r>
       <r>    -1.2869     3.9628    53.1013 </r>
       <r>    -1.1776     3.3904    53.4718 </r>
       <r>    -1.0684     3.9164    53.8999 </r>
       <r>    -0.9591     2.5991    54.1839 </r>
       <r>    -0.8498     5.3080    54.7641 </r>
       <r>    -0.7405     4.3626    55.2409 </r>
       <r>    -0.6312     2.5654    55.5212 </r>
       <r>    -0.5219     2.3526    55.7784 </r>
       <r>    -0.4126     2.1367    56.0119 </r>
       <r>    -0.3033     1.1104    56.1333 </r>
       <r>    -0.1940     0.7041    56.2102 </r>
       <r>    -0.0847     0.0472    56.2154 </r>
       <r>     0.0246     0.0653    56.2225 </r>
       <r>     0.1339     0.1877    56.2430 </r>
       <r>     0.2432     2.0042    56.4621 </r>
       <r>     0.3525     1.7935    56.6581 </r>
       <r>     0.4618     1.3542    56.8061 </r>
       <r>     0.5711     2.5140    57.0809 </r>
       <r>     0.6804     2.0698    57.3071 </r>
       <r>     0.7896     3.8236    57.7250 </r>
       <r>     0.8989     2.7156    58.0218 </r>
       <r>     1.0082     6.2738    58.7075 </r>
       <r>     1.1175     8.1545    59.5987 </r>
       <r>     1.2268     6.8577    60.3482 </r>
       <r>     1.3361     5.8705    60.9899 </r>
       <r>     1.4454     8.1766    61.8835 </r>
       <r>     1.5547     4.9924    62.4292 </r>
       <r>     1.6640     6.2042    63.1072 </r>
       <r>     1.7733     4.0933    63.5546 </r>
       <r>     1.8826     2.4979    63.8276 </r>
       <r>     1.9919     1.2037    63.9592 </r>
       <r>     2.1012     0.3734    64.0000 </r>
       <r>     2.2105     0.0000    64.0000 </r>
       <r>     2.3198     0.0000    64.0000 </r>
       <r>     2.4291     0.0000    64.0000 </r>
       <r>     2.5384     0.0000    64.0000 </r>
       <r>     2.6477     0.0000    64.0000 </r>
       <r>     2.7569     0.0000    64.0000 </r>
       <r>     2.8662     0.0000    64.0000 </r>
       <r>     2.9755     0.0000    64.0000 </r>
       <r>     3.0848     0.0000    64.0000 </r>
       <r>     3.1941     0.0000    64.0000 </r>
       <r>     3.3034     0.0000    64.0000 </r>
       <r>     3.4127     0.0000    64.0000 </r>
       <r>     3.5220     0.0000    64.0000 </r>
      </set>
     </set>
    </array>
   </total>
  </dos>
 </calculation>
 <structure name="finalpos" >
  <crystal>
   <varray name="basis" >
    <v>       4.88148500       0.00000000       0.00000000 </v>
    <v>       0.00000000       5.57120200       0.00000000 </v>
    <v>       0.00000000       0.00000000      18.07929100 </v>
   </varray>
   <i name="volume">    491.67967925 </i>
   <varray name="rec_basis" >
    <v>       0.20485569       0.00000000       0.00000000 </v>
    <v>       0.00000000       0.17949448       0.00000000 </v>
    <v>       0.00000000       0.00000000       0.05531190 </v>
   </varray>
  </crystal>
  <varray name="positions" >
   <v>       0.50000000       0.50000000       0.50000000 </v>
   <v>       0.00000000       0.00000000       0.50000000 </v>
   <v>       0.25000000       0.25000000       0.41491358 </v>
   <v>       0.75000000       0.75000000       0.41491358 </v>
   <v>       0.75000000       0.25000000       0.58508642 </v>
   <v>       0.25000000       0.75000000       0.58508642 </v>
  </varray>
 </structure>
</modeling>
