<?xml version="1.0" encoding="ISO-8859-1"?>
<modeling>
 <generator>
  <i name="program" type="string">vasp </i>
  <i name="version" type="string">5.4.1  </i>
  <i name="subversion" type="string">24Jun15 (build Nov 20 2020 10:29:34) complex                          parallel </i>
  <i name="platform" type="string">IFC91_ompi </i>
  <i name="date" type="string">2021 09 09 </i>
  <i name="time" type="string">14:49:46 </i>
 </generator>
 <incar>
  <i type="string" name="PREC">a</i>
  <i type="string" name="ALGO"> Normal</i>
  <i type="int" name="ISPIN">     1</i>
  <i type="int" name="ICHARG">     2</i>
  <i type="int" name="NELM">   250</i>
  <i type="int" name="NELMDL">    -5</i>
  <i type="int" name="NELMIN">     6</i>
  <i type="int" name="IBRION">     2</i>
  <i name="EDIFF">      0.00001000</i>
  <i name="EDIFFG">     -0.01000000</i>
  <i type="int" name="NSW">   200</i>
  <i type="int" name="ISIF">     2</i>
  <i name="ENCUT">    520.00000000</i>
  <i name="POTIM">      0.30000000</i>
  <i type="logical" name="LREAL"> F  </i>
  <i type="int" name="ISMEAR">     0</i>
  <i name="SIGMA">      0.02000000</i>
  <i type="logical" name="LWAVE"> F  </i>
  <i type="logical" name="LCHARG"> F  </i>
  <i type="logical" name="LAECHG"> F  </i>
  <v type="int" name="KPOINT_BSE">    -1     0     0     0</v>
  <i type="int" name="NELM">   250</i>
 </incar>
 <kpoints>
  <generation param="Gamma">
   <v type="int" name="divisions">      21       15        1 </v>
   <v name="usershift">      0.00000000       0.00000000       0.00000000 </v>
   <v name="genvec1">      0.04761905       0.00000000       0.00000000 </v>
   <v name="genvec2">      0.00000000       0.06666667       0.00000000 </v>
   <v name="genvec3">      0.00000000       0.00000000       1.00000000 </v>
   <v name="shift">      0.00000000       0.00000000       0.00000000 </v>
  </generation>
  <varray name="kpointlist" >
   <v>       0.00000000       0.00000000       0.00000000 </v>
   <v>       0.04761905       0.00000000       0.00000000 </v>
   <v>       0.09523810       0.00000000       0.00000000 </v>
   <v>       0.14285714       0.00000000       0.00000000 </v>
   <v>       0.19047619       0.00000000       0.00000000 </v>
   <v>       0.23809524       0.00000000       0.00000000 </v>
   <v>       0.28571429       0.00000000       0.00000000 </v>
   <v>       0.33333333       0.00000000       0.00000000 </v>
   <v>       0.38095238       0.00000000       0.00000000 </v>
   <v>       0.42857143       0.00000000       0.00000000 </v>
   <v>       0.47619048       0.00000000       0.00000000 </v>
   <v>      -0.00000000       0.06666667       0.00000000 </v>
   <v>       0.04761905       0.06666667       0.00000000 </v>
   <v>       0.09523810       0.06666667       0.00000000 </v>
   <v>       0.14285714       0.06666667       0.00000000 </v>
   <v>       0.19047619       0.06666667       0.00000000 </v>
   <v>       0.23809524       0.06666667       0.00000000 </v>
   <v>       0.28571429       0.06666667       0.00000000 </v>
   <v>       0.33333333       0.06666667       0.00000000 </v>
   <v>       0.38095238       0.06666667       0.00000000 </v>
   <v>       0.42857143       0.06666667       0.00000000 </v>
   <v>       0.47619048       0.06666667       0.00000000 </v>
   <v>      -0.47619048       0.06666667       0.00000000 </v>
   <v>      -0.42857143       0.06666667       0.00000000 </v>
   <v>      -0.38095238       0.06666667       0.00000000 </v>
   <v>      -0.33333333       0.06666667       0.00000000 </v>
   <v>      -0.28571429       0.06666667       0.00000000 </v>
   <v>      -0.23809524       0.06666667       0.00000000 </v>
   <v>      -0.19047619       0.06666667       0.00000000 </v>
   <v>      -0.14285714       0.06666667       0.00000000 </v>
   <v>      -0.09523810       0.06666667       0.00000000 </v>
   <v>      -0.04761905       0.06666667       0.00000000 </v>
   <v>       0.00000000       0.13333333       0.00000000 </v>
   <v>       0.04761905       0.13333333       0.00000000 </v>
   <v>       0.09523810       0.13333333       0.00000000 </v>
   <v>       0.14285714       0.13333333       0.00000000 </v>
   <v>       0.19047619       0.13333333       0.00000000 </v>
   <v>       0.23809524       0.13333333       0.00000000 </v>
   <v>       0.28571429       0.13333333       0.00000000 </v>
   <v>       0.33333333       0.13333333       0.00000000 </v>
   <v>       0.38095238       0.13333333       0.00000000 </v>
   <v>       0.42857143       0.13333333       0.00000000 </v>
   <v>       0.47619048       0.13333333       0.00000000 </v>
   <v>      -0.47619048       0.13333333       0.00000000 </v>
   <v>      -0.42857143       0.13333333       0.00000000 </v>
   <v>      -0.38095238       0.13333333       0.00000000 </v>
   <v>      -0.33333333       0.13333333       0.00000000 </v>
   <v>      -0.28571429       0.13333333       0.00000000 </v>
   <v>      -0.23809524       0.13333333       0.00000000 </v>
   <v>      -0.19047619       0.13333333       0.00000000 </v>
   <v>      -0.14285714       0.13333333       0.00000000 </v>
   <v>      -0.09523810       0.13333333       0.00000000 </v>
   <v>      -0.04761905       0.13333333       0.00000000 </v>
   <v>       0.00000000       0.20000000       0.00000000 </v>
   <v>       0.04761905       0.20000000       0.00000000 </v>
   <v>       0.09523810       0.20000000       0.00000000 </v>
   <v>       0.14285714       0.20000000       0.00000000 </v>
   <v>       0.19047619       0.20000000       0.00000000 </v>
   <v>       0.23809524       0.20000000       0.00000000 </v>
   <v>       0.28571429       0.20000000       0.00000000 </v>
   <v>       0.33333333       0.20000000       0.00000000 </v>
   <v>       0.38095238       0.20000000       0.00000000 </v>
   <v>       0.42857143       0.20000000       0.00000000 </v>
   <v>       0.47619048       0.20000000       0.00000000 </v>
   <v>      -0.47619048       0.20000000       0.00000000 </v>
   <v>      -0.42857143       0.20000000       0.00000000 </v>
   <v>      -0.38095238       0.20000000       0.00000000 </v>
   <v>      -0.33333333       0.20000000       0.00000000 </v>
   <v>      -0.28571429       0.20000000       0.00000000 </v>
   <v>      -0.23809524       0.20000000       0.00000000 </v>
   <v>      -0.19047619       0.20000000       0.00000000 </v>
   <v>      -0.14285714       0.20000000       0.00000000 </v>
   <v>      -0.09523810       0.20000000       0.00000000 </v>
   <v>      -0.04761905       0.20000000       0.00000000 </v>
   <v>       0.00000000       0.26666667       0.00000000 </v>
   <v>       0.04761905       0.26666667       0.00000000 </v>
   <v>       0.09523810       0.26666667       0.00000000 </v>
   <v>       0.14285714       0.26666667       0.00000000 </v>
   <v>       0.19047619       0.26666667       0.00000000 </v>
   <v>       0.23809524       0.26666667       0.00000000 </v>
   <v>       0.28571429       0.26666667       0.00000000 </v>
   <v>       0.33333333       0.26666667       0.00000000 </v>
   <v>       0.38095238       0.26666667       0.00000000 </v>
   <v>       0.42857143       0.26666667       0.00000000 </v>
   <v>       0.47619048       0.26666667       0.00000000 </v>
   <v>      -0.47619048       0.26666667       0.00000000 </v>
   <v>      -0.42857143       0.26666667       0.00000000 </v>
   <v>      -0.38095238       0.26666667       0.00000000 </v>
   <v>      -0.33333333       0.26666667       0.00000000 </v>
   <v>      -0.28571429       0.26666667       0.00000000 </v>
   <v>      -0.23809524       0.26666667       0.00000000 </v>
   <v>      -0.19047619       0.26666667       0.00000000 </v>
   <v>      -0.14285714       0.26666667       0.00000000 </v>
   <v>      -0.09523810       0.26666667       0.00000000 </v>
   <v>      -0.04761905       0.26666667       0.00000000 </v>
   <v>       0.00000000       0.33333333       0.00000000 </v>
   <v>       0.04761905       0.33333333       0.00000000 </v>
   <v>       0.09523810       0.33333333       0.00000000 </v>
   <v>       0.14285714       0.33333333       0.00000000 </v>
   <v>       0.19047619       0.33333333       0.00000000 </v>
   <v>       0.23809524       0.33333333       0.00000000 </v>
   <v>       0.28571429       0.33333333       0.00000000 </v>
   <v>       0.33333333       0.33333333       0.00000000 </v>
   <v>       0.38095238       0.33333333       0.00000000 </v>
   <v>       0.42857143       0.33333333       0.00000000 </v>
   <v>       0.47619048       0.33333333       0.00000000 </v>
   <v>      -0.47619048       0.33333333       0.00000000 </v>
   <v>      -0.42857143       0.33333333       0.00000000 </v>
   <v>      -0.38095238       0.33333333       0.00000000 </v>
   <v>      -0.33333333       0.33333333       0.00000000 </v>
   <v>      -0.28571429       0.33333333       0.00000000 </v>
   <v>      -0.23809524       0.33333333       0.00000000 </v>
   <v>      -0.19047619       0.33333333       0.00000000 </v>
   <v>      -0.14285714       0.33333333       0.00000000 </v>
   <v>      -0.09523810       0.33333333       0.00000000 </v>
   <v>      -0.04761905       0.33333333       0.00000000 </v>
   <v>       0.00000000       0.40000000       0.00000000 </v>
   <v>       0.04761905       0.40000000       0.00000000 </v>
   <v>       0.09523810       0.40000000       0.00000000 </v>
   <v>       0.14285714       0.40000000       0.00000000 </v>
   <v>       0.19047619       0.40000000       0.00000000 </v>
   <v>       0.23809524       0.40000000       0.00000000 </v>
   <v>       0.28571429       0.40000000       0.00000000 </v>
   <v>       0.33333333       0.40000000       0.00000000 </v>
   <v>       0.38095238       0.40000000       0.00000000 </v>
   <v>       0.42857143       0.40000000       0.00000000 </v>
   <v>       0.47619048       0.40000000       0.00000000 </v>
   <v>      -0.47619048       0.40000000       0.00000000 </v>
   <v>      -0.42857143       0.40000000       0.00000000 </v>
   <v>      -0.38095238       0.40000000       0.00000000 </v>
   <v>      -0.33333333       0.40000000       0.00000000 </v>
   <v>      -0.28571429       0.40000000       0.00000000 </v>
   <v>      -0.23809524       0.40000000       0.00000000 </v>
   <v>      -0.19047619       0.40000000       0.00000000 </v>
   <v>      -0.14285714       0.40000000       0.00000000 </v>
   <v>      -0.09523810       0.40000000       0.00000000 </v>
   <v>      -0.04761905       0.40000000       0.00000000 </v>
   <v>       0.00000000       0.46666667       0.00000000 </v>
   <v>       0.04761905       0.46666667       0.00000000 </v>
   <v>       0.09523810       0.46666667       0.00000000 </v>
   <v>       0.14285714       0.46666667       0.00000000 </v>
   <v>       0.19047619       0.46666667       0.00000000 </v>
   <v>       0.23809524       0.46666667       0.00000000 </v>
   <v>       0.28571429       0.46666667       0.00000000 </v>
   <v>       0.33333333       0.46666667       0.00000000 </v>
   <v>       0.38095238       0.46666667       0.00000000 </v>
   <v>       0.42857143       0.46666667       0.00000000 </v>
   <v>       0.47619048       0.46666667       0.00000000 </v>
   <v>      -0.47619048       0.46666667       0.00000000 </v>
   <v>      -0.42857143       0.46666667       0.00000000 </v>
   <v>      -0.38095238       0.46666667       0.00000000 </v>
   <v>      -0.33333333       0.46666667       0.00000000 </v>
   <v>      -0.28571429       0.46666667       0.00000000 </v>
   <v>      -0.23809524       0.46666667       0.00000000 </v>
   <v>      -0.19047619       0.46666667       0.00000000 </v>
   <v>      -0.14285714       0.46666667       0.00000000 </v>
   <v>      -0.09523810       0.46666667       0.00000000 </v>
   <v>      -0.04761905       0.46666667       0.00000000 </v>
  </varray>
  <varray name="weights" >
   <v>       0.00317460 </v>
   <v>       0.00634921 </v>
   <v>       0.00634921 </v>
   <v>       0.00634921 </v>
   <v>       0.00634921 </v>
   <v>       0.00634921 </v>
   <v>       0.00634921 </v>
   <v>       0.00634921 </v>
   <v>       0.00634921 </v>
   <v>       0.00634921 </v>
   <v>       0.00634921 </v>
   <v>       0.00634921 </v>
   <v>       0.00634921 </v>
   <v>       0.00634921 </v>
   <v>       0.00634921 </v>
   <v>       0.00634921 </v>
   <v>       0.00634921 </v>
   <v>       0.00634921 </v>
   <v>       0.00634921 </v>
   <v>       0.00634921 </v>
   <v>       0.00634921 </v>
   <v>       0.00634921 </v>
   <v>       0.00634921 </v>
   <v>       0.00634921 </v>
   <v>       0.00634921 </v>
   <v>       0.00634921 </v>
   <v>       0.00634921 </v>
   <v>       0.00634921 </v>
   <v>       0.00634921 </v>
   <v>       0.00634921 </v>
   <v>       0.00634921 </v>
   <v>       0.00634921 </v>
   <v>       0.00634921 </v>
   <v>       0.00634921 </v>
   <v>       0.00634921 </v>
   <v>       0.00634921 </v>
   <v>       0.00634921 </v>
   <v>       0.00634921 </v>
   <v>       0.00634921 </v>
   <v>       0.00634921 </v>
   <v>       0.00634921 </v>
   <v>       0.00634921 </v>
   <v>       0.00634921 </v>
   <v>       0.00634921 </v>
   <v>       0.00634921 </v>
   <v>       0.00634921 </v>
   <v>       0.00634921 </v>
   <v>       0.00634921 </v>
   <v>       0.00634921 </v>
   <v>       0.00634921 </v>
   <v>       0.00634921 </v>
   <v>       0.00634921 </v>
   <v>       0.00634921 </v>
   <v>       0.00634921 </v>
   <v>       0.00634921 </v>
   <v>       0.00634921 </v>
   <v>       0.00634921 </v>
   <v>       0.00634921 </v>
   <v>       0.00634921 </v>
   <v>       0.00634921 </v>
   <v>       0.00634921 </v>
   <v>       0.00634921 </v>
   <v>       0.00634921 </v>
   <v>       0.00634921 </v>
   <v>       0.00634921 </v>
   <v>       0.00634921 </v>
   <v>       0.00634921 </v>
   <v>       0.00634921 </v>
   <v>       0.00634921 </v>
   <v>       0.00634921 </v>
   <v>       0.00634921 </v>
   <v>       0.00634921 </v>
   <v>       0.00634921 </v>
   <v>       0.00634921 </v>
   <v>       0.00634921 </v>
   <v>       0.00634921 </v>
   <v>       0.00634921 </v>
   <v>       0.00634921 </v>
   <v>       0.00634921 </v>
   <v>       0.00634921 </v>
   <v>       0.00634921 </v>
   <v>       0.00634921 </v>
   <v>       0.00634921 </v>
   <v>       0.00634921 </v>
   <v>       0.00634921 </v>
   <v>       0.00634921 </v>
   <v>       0.00634921 </v>
   <v>       0.00634921 </v>
   <v>       0.00634921 </v>
   <v>       0.00634921 </v>
   <v>       0.00634921 </v>
   <v>       0.00634921 </v>
   <v>       0.00634921 </v>
   <v>       0.00634921 </v>
   <v>       0.00634921 </v>
   <v>       0.00634921 </v>
   <v>       0.00634921 </v>
   <v>       0.00634921 </v>
   <v>       0.00634921 </v>
   <v>       0.00634921 </v>
   <v>       0.00634921 </v>
   <v>       0.00634921 </v>
   <v>       0.00634921 </v>
   <v>       0.00634921 </v>
   <v>       0.00634921 </v>
   <v>       0.00634921 </v>
   <v>       0.00634921 </v>
   <v>       0.00634921 </v>
   <v>       0.00634921 </v>
   <v>       0.00634921 </v>
   <v>       0.00634921 </v>
   <v>       0.00634921 </v>
   <v>       0.00634921 </v>
   <v>       0.00634921 </v>
   <v>       0.00634921 </v>
   <v>       0.00634921 </v>
   <v>       0.00634921 </v>
   <v>       0.00634921 </v>
   <v>       0.00634921 </v>
   <v>       0.00634921 </v>
   <v>       0.00634921 </v>
   <v>       0.00634921 </v>
   <v>       0.00634921 </v>
   <v>       0.00634921 </v>
   <v>       0.00634921 </v>
   <v>       0.00634921 </v>
   <v>       0.00634921 </v>
   <v>       0.00634921 </v>
   <v>       0.00634921 </v>
   <v>       0.00634921 </v>
   <v>       0.00634921 </v>
   <v>       0.00634921 </v>
   <v>       0.00634921 </v>
   <v>       0.00634921 </v>
   <v>       0.00634921 </v>
   <v>       0.00634921 </v>
   <v>       0.00634921 </v>
   <v>       0.00634921 </v>
   <v>       0.00634921 </v>
   <v>       0.00634921 </v>
   <v>       0.00634921 </v>
   <v>       0.00634921 </v>
   <v>       0.00634921 </v>
   <v>       0.00634921 </v>
   <v>       0.00634921 </v>
   <v>       0.00634921 </v>
   <v>       0.00634921 </v>
   <v>       0.00634921 </v>
   <v>       0.00634921 </v>
   <v>       0.00634921 </v>
   <v>       0.00634921 </v>
   <v>       0.00634921 </v>
   <v>       0.00634921 </v>
   <v>       0.00634921 </v>
   <v>       0.00634921 </v>
   <v>       0.00634921 </v>
   <v>       0.00634921 </v>
   <v>       0.00634921 </v>
  </varray>
 </kpoints>
 <parameters>
  <separator name="general" >
   <i type="string" name="SYSTEM">unknown system</i>
   <i type="logical" name="LCOMPAT"> F  </i>
  </separator>
  <separator name="electronic" >
   <i type="string" name="PREC">a</i>
   <i name="ENMAX">    520.00000000</i>
   <i name="ENAUG">    342.92400000</i>
   <i name="EDIFF">      0.00001000</i>
   <i type="int" name="IALGO">    38</i>
   <i type="int" name="IWAVPR">    11</i>
   <i type="int" name="NBANDS">    16</i>
   <i name="NELECT">     20.00000000</i>
   <i type="int" name="TURBO">     0</i>
   <i type="int" name="IRESTART">     0</i>
   <i type="int" name="NREBOOT">     0</i>
   <i type="int" name="NMIN">     0</i>
   <i name="EREF">      0.00000000</i>
   <separator name="electronic smearing" >
    <i type="int" name="ISMEAR">     0</i>
    <i name="SIGMA">      0.02000000</i>
    <i name="KSPACING">      0.50000000</i>
    <i type="logical" name="KGAMMA"> T  </i>
   </separator>
   <separator name="electronic projectors" >
    <i type="logical" name="LREAL"> F  </i>
    <v name="ROPT">      0.00000000</v>
    <i type="int" name="LMAXPAW">  -100</i>
    <i type="int" name="LMAXMIX">     2</i>
    <i type="logical" name="NLSPLINE"> F  </i>
   </separator>
   <separator name="electronic startup" >
    <i type="int" name="ISTART">     0</i>
    <i type="int" name="ICHARG">     2</i>
    <i type="int" name="INIWAV">     1</i>
   </separator>
   <separator name="electronic spin" >
    <i type="int" name="ISPIN">     1</i>
    <i type="logical" name="LNONCOLLINEAR"> F  </i>
    <v name="MAGMOM">      1.00000000      1.00000000      1.00000000      1.00000000</v>
    <i name="NUPDOWN">     -1.00000000</i>
    <i type="logical" name="LSORBIT"> F  </i>
    <v name="SAXIS">      0.00000000      0.00000000      1.00000000</v>
    <i type="logical" name="LSPIRAL"> F  </i>
    <v name="QSPIRAL">      0.00000000      0.00000000      0.00000000</v>
    <i type="logical" name="LZEROZ"> F  </i>
   </separator>
   <separator name="electronic exchange-correlation" >
    <i type="logical" name="LASPH"> F  </i>
    <i type="logical" name="LMETAGGA"> F  </i>
   </separator>
   <separator name="electronic convergence" >
    <i type="int" name="NELM">   250</i>
    <i type="int" name="NELMDL">    -5</i>
    <i type="int" name="NELMIN">     6</i>
    <i name="ENINI">    520.00000000</i>
    <separator name="electronic convergence detail" >
     <i type="logical" name="LDIAG"> T  </i>
     <i type="logical" name="LSUBROT"> F  </i>
     <i name="WEIMIN">      0.00100000</i>
     <i name="EBREAK">      0.00000016</i>
     <i name="DEPER">      0.30000000</i>
     <i type="int" name="NRMM">     4</i>
     <i name="TIME">      0.40000000</i>
    </separator>
   </separator>
   <separator name="electronic mixer" >
    <i name="AMIX">      0.40000000</i>
    <i name="BMIX">      1.00000000</i>
    <i name="AMIN">      0.10000000</i>
    <i name="AMIX_MAG">      1.60000000</i>
    <i name="BMIX_MAG">      1.00000000</i>
    <separator name="electronic mixer details" >
     <i type="int" name="IMIX">     4</i>
     <i type="logical" name="MIXFIRST"> F  </i>
     <i type="int" name="MAXMIX">   -45</i>
     <i name="WC">    100.00000000</i>
     <i type="int" name="INIMIX">     1</i>
     <i type="int" name="MIXPRE">     1</i>
     <i type="int" name="MREMOVE">     5</i>
    </separator>
   </separator>
   <separator name="electronic dipolcorrection" >
    <i type="logical" name="LDIPOL"> F  </i>
    <i type="logical" name="LMONO"> F  </i>
    <i type="int" name="IDIPOL">     0</i>
    <i name="EPSILON">      1.00000000</i>
    <v name="DIPOL">   -100.00000000   -100.00000000   -100.00000000</v>
    <i name="EFIELD">      0.00000000</i>
   </separator>
  </separator>
  <separator name="grids" >
   <i type="int" name="NGX">    28</i>
   <i type="int" name="NGY">    36</i>
   <i type="int" name="NGZ">   150</i>
   <i type="int" name="NGXF">    56</i>
   <i type="int" name="NGYF">    72</i>
   <i type="int" name="NGZF">   300</i>
   <i type="logical" name="ADDGRID"> F  </i>
  </separator>
  <separator name="ionic" >
   <i type="int" name="NSW">   200</i>
   <i type="int" name="IBRION">     2</i>
   <i type="int" name="ISIF">     2</i>
   <i name="PSTRESS">      0.00000000</i>
   <i name="EDIFFG">     -0.01000000</i>
   <i type="int" name="NFREE">     1</i>
   <i name="POTIM">      0.30000000</i>
   <i name="SMASS">     -3.00000000</i>
   <i name="SCALEE">      1.00000000</i>
  </separator>
  <separator name="ionic md" >
   <i name="TEBEG">      0.00010000</i>
   <i name="TEEND">      0.00010000</i>
   <i type="int" name="NBLOCK">     1</i>
   <i type="int" name="KBLOCK">   200</i>
   <i type="int" name="NPACO">   256</i>
   <i name="APACO">     16.00000000</i>
  </separator>
  <separator name="symmetry" >
   <i type="int" name="ISYM">     2</i>
   <i name="SYMPREC">      0.00001000</i>
  </separator>
  <separator name="dos" >
   <i type="logical" name="LORBIT"> F  </i>
   <v name="RWIGS">     -1.00000000</v>
   <i type="int" name="NEDOS">   301</i>
   <i name="EMIN">     10.00000000</i>
   <i name="EMAX">    -10.00000000</i>
   <i name="EFERMI">      0.00000000</i>
  </separator>
  <separator name="writing" >
   <i type="int" name="NWRITE">     2</i>
   <i type="logical" name="LWAVE"> F  </i>
   <i type="logical" name="LCHARG"> F  </i>
   <i type="logical" name="LPARD"> F  </i>
   <i type="logical" name="LVTOT"> F  </i>
   <i type="logical" name="LVHAR"> F  </i>
   <i type="logical" name="LELF"> F  </i>
   <i type="logical" name="LOPTICS"> F  </i>
   <v name="STM">      0.00000000      0.00000000      0.00000000      0.00000000      0.00000000      0.00000000      0.00000000</v>
  </separator>
  <separator name="performance" >
   <i type="int" name="NPAR">     4</i>
   <i type="int" name="NSIM">     4</i>
   <i type="int" name="NBLK">    -1</i>
   <i type="logical" name="LPLANE"> T  </i>
   <i type="logical" name="LSCALAPACK"> T  </i>
   <i type="logical" name="LSCAAWARE"> F  </i>
   <i type="logical" name="LSCALU"> F  </i>
   <i type="logical" name="LASYNC"> F  </i>
   <i type="logical" name="LORBITALREAL"> F  </i>
  </separator>
  <separator name="miscellaneous" >
   <i type="int" name="IDIOT">     3</i>
   <i type="logical" name="LMUSIC"> F  </i>
   <v name="POMASS">     30.97400000</v>
   <v name="DARWINR">      0.00000000</v>
   <v name="DARWINV">      1.00000000</v>
   <i type="logical" name="LCORR"> T  </i>
  </separator>
  <i type="logical" name="GGA_COMPAT"> T  </i>
  <i type="logical" name="LBERRY"> F  </i>
  <i type="int" name="ICORELEVEL">     0</i>
  <i type="logical" name="LDAU"> F  </i>
  <i type="int" name="I_CONSTRAINED_M">     0</i>
  <separator name="electronic exchange-correlation" >
   <i type="string" name="GGA">--</i>
   <i type="int" name="VOSKOWN">     0</i>
   <i type="logical" name="LHFCALC"> F  </i>
   <i type="string" name="PRECFOCK"></i>
   <i type="logical" name="LSYMGRAD"> F  </i>
   <i type="logical" name="LHFONE"> F  </i>
   <i type="logical" name="LRHFCALC"> F  </i>
   <i type="logical" name="LTHOMAS"> F  </i>
   <i type="logical" name="LMODELHF"> F  </i>
   <i name="ENCUT4O">     -1.00000000</i>
   <i type="int" name="EXXOEP">     0</i>
   <i type="int" name="FOURORBIT">     0</i>
   <i name="AEXX">      0.00000000</i>
   <i name="HFALPHA">      0.00000000</i>
   <i name="MCALPHA">      0.00000000</i>
   <i name="ALDAX">      1.00000000</i>
   <i name="AGGAX">      1.00000000</i>
   <i name="ALDAC">      1.00000000</i>
   <i name="AGGAC">      1.00000000</i>
   <i type="int" name="NKREDX">     1</i>
   <i type="int" name="NKREDY">     1</i>
   <i type="int" name="NKREDZ">     1</i>
   <i type="logical" name="SHIFTRED"> F  </i>
   <i type="logical" name="ODDONLY"> F  </i>
   <i type="logical" name="EVENONLY"> F  </i>
   <i type="int" name="LMAXFOCK">     0</i>
   <i type="int" name="NMAXFOCKAE">     0</i>
   <i type="logical" name="LFOCKAEDFT"> F  </i>
   <i name="HFSCREEN">      0.00000000</i>
   <i name="HFSCREENC">      0.00000000</i>
   <i type="int" name="NBANDSGWLOW">     0</i>
  </separator>
  <separator name="vdW DFT" >
   <i type="logical" name="LUSE_VDW"> F  </i>
   <i name="Zab_VDW">     -0.84910000</i>
   <i name="PARAM1">      0.12340000</i>
   <i name="PARAM2">      1.00000000</i>
   <i name="PARAM3">      0.00000000</i>
  </separator>
  <separator name="model GW" >
   <i type="int" name="MODEL_GW">     0</i>
   <i name="MODEL_EPS0">     45.78587640</i>
   <i name="MODEL_ALPHA">      1.00000000</i>
  </separator>
  <separator name="linear response parameters" >
   <i type="logical" name="LEPSILON"> F  </i>
   <i type="logical" name="LRPA"> F  </i>
   <i type="logical" name="LNABLA"> F  </i>
   <i type="logical" name="LVEL"> F  </i>
   <i type="int" name="KINTER">     0</i>
   <i name="CSHIFT">      0.10000000</i>
   <i name="OMEGAMAX">     -1.00000000</i>
   <i name="DEG_THRESHOLD">      0.00200000</i>
  </separator>
  <separator name="orbital magnetization" >
   <i type="logical" name="NUCIND"> F  </i>
   <v name="MAGPOS">      0.00000000      0.00000000      0.00000000</v>
   <i type="logical" name="LNICSALL"> T  </i>
   <i type="logical" name="ORBITALMAG"> F  </i>
   <i type="logical" name="LMAGBLOCH"> F  </i>
   <i type="logical" name="LCHIMAG"> F  </i>
   <i type="logical" name="LGAUGE"> T  </i>
   <i type="int" name="MAGATOM">     0</i>
   <v name="MAGDIPOL">      0.00000000      0.00000000      0.00000000</v>
   <v name="AVECCONST">      0.00000000      0.00000000      0.00000000</v>
  </separator>
  <separator name="response functions" >
   <i type="logical" name="LADDER"> F  </i>
   <i type="logical" name="LFXC"> F  </i>
   <i type="logical" name="LHARTREE"> T  </i>
   <i type="int" name="IBSE">     0</i>
   <v type="int" name="KPOINT">    -1     0     0     0</v>
   <i type="logical" name="LTCTE"> F  </i>
   <i type="logical" name="LTETE"> F  </i>
   <i type="logical" name="LTRIPLET"> F  </i>
   <i type="logical" name="LFXCEPS"> F  </i>
   <i type="logical" name="LFXHEG"> F  </i>
   <i type="int" name="NATURALO">     0</i>
   <i type="logical" name="L2ORDER"> F  </i>
   <i type="logical" name="LUSEW"> F  </i>
   <i name="ENCUTGW">     -2.00000000</i>
   <i name="ENCUTGWSOFT">     -2.00000000</i>
   <i name="ENCUTLF">     -1.00000000</i>
   <i type="int" name="LMAXMP2">    -1</i>
   <i name="SCISSOR">      0.00000000</i>
   <i type="int" name="NOMEGA">     0</i>
   <i type="int" name="NOMEGAR">     0</i>
   <i type="int" name="NBANDSGW">    -1</i>
   <i type="int" name="NBANDSO">    -1</i>
   <i type="int" name="NBANDSV">    -1</i>
   <i type="int" name="NELM">   250</i>
   <i type="int" name="NELMHF">     1</i>
   <i type="int" name="DIM">     3</i>
   <i type="int" name="ANTIRES">     0</i>
   <i name="OMEGAMAX">    -30.00000000</i>
   <i name="OMEGAMIN">    -30.00000000</i>
   <i name="OMEGATL">   -200.00000000</i>
   <i type="int" name="OMEGAGRID">     0</i>
   <i name="CSHIFT">     -0.10000000</i>
   <i type="logical" name="SELFENERGY"> F  </i>
   <i type="logical" name="LSPECTRAL"> F  </i>
   <i type="logical" name="LSPECTRALGW"> F  </i>
   <i type="logical" name="LSINGLES"> F  </i>
   <i type="logical" name="LFERMIGW"> F  </i>
   <i type="logical" name="ODDONLYGW"> F  </i>
   <i type="logical" name="EVENONLYGW"> F  </i>
   <i type="int" name="NKREDLFX">     1</i>
   <i type="int" name="NKREDLFY">     1</i>
   <i type="int" name="NKREDLFZ">     1</i>
   <i type="int" name="MAXMEM">  1800</i>
   <i type="int" name="TELESCOPE">     0</i>
   <i type="int" name="TAUPAR">     1</i>
   <i type="int" name="OMEGAPAR">    -1</i>
   <i name="LAMBDA">      1.00000000</i>
  </separator>
  <separator name="External order field" >
   <i name="OFIELD_KAPPA">      0.00000000</i>
   <v name="OFIELD_K">      0.00000000      0.00000000      0.00000000</v>
   <i name="OFIELD_Q6_NEAR">      0.00000000</i>
   <i name="OFIELD_Q6_FAR">      0.00000000</i>
   <i name="OFIELD_A">      0.00000000</i>
  </separator>
 </parameters>
 <atominfo>
  <atoms>       4 </atoms>
  <types>       1 </types>
  <array name="atoms" >
   <dimension dim="1">ion</dimension>
   <field type="string">element</field>
   <field type="int">atomtype</field>
   <set>
    <rc><c>P </c><c>   1</c></rc>
    <rc><c>P </c><c>   1</c></rc>
    <rc><c>P </c><c>   1</c></rc>
    <rc><c>P </c><c>   1</c></rc>
   </set>
  </array>
  <array name="atomtypes" >
   <dimension dim="1">type</dimension>
   <field type="int">atomspertype</field>
   <field type="string">element</field>
   <field>mass</field>
   <field>valence</field>
   <field type="string">pseudopotential</field>
   <set>
    <rc><c>   4</c><c>P </c><c>     30.97400000</c><c>      5.00000000</c><c>  PAW_PBE P 06Sep2000                   </c></rc>
   </set>
  </array>
 </atominfo>
 <structure name="initialpos" >
  <crystal>
   <varray name="basis" >
    <v>       3.29716300       0.01648600       0.00000000 </v>
    <v>       0.02311700       4.62329300      -0.00005300 </v>
    <v>       0.00000000       0.00000000      20.02439000 </v>
   </varray>
   <i name="volume">    305.23917600 </i>
   <varray name="rec_basis" >
    <v>       0.30329862      -0.00151653       0.00000000 </v>
    <v>      -0.00108152       0.21630145       0.00000000 </v>
    <v>      -0.00000000       0.00000057       0.04993910 </v>
   </varray>
  </crystal>
  <varray name="positions" >
   <v>       0.50000000       0.91077300       0.55252100 </v>
   <v>       0.50000000       0.08922700       0.44747900 </v>
   <v>       0.00000000       0.41076900       0.44747900 </v>
   <v>       0.00000000       0.58923100       0.55252100 </v>
  </varray>
 </structure>
 <calculation>
  <scstep>
   <time name="dav">    1.50    1.50</time>
   <time name="total">    1.52    1.52</time>
   <energy>
    <i name="alphaZ">      5.25542318 </i>
    <i name="ewald">   1863.19599068 </i>
    <i name="hartreedc">  -2456.93716697 </i>
    <i name="XCdc">     13.03015702 </i>
    <i name="pawpsdc">    559.04011960 </i>
    <i name="pawaedc">   -526.39432044 </i>
    <i name="eentropy">     -0.00062226 </i>
    <i name="bandstr">    -29.18695138 </i>
    <i name="atom">    704.16778566 </i>
    <i name="e_fr_energy">    132.17041509 </i>
    <i name="e_wo_entrp">    132.17103735 </i>
    <i name="e_0_energy">    132.17072622 </i>
   </energy>
  </scstep>
  <scstep>
   <time name="dav">    1.97    1.98</time>
   <time name="total">    1.98    1.98</time>
   <energy>
    <i name="e_fr_energy">     -6.24562624 </i>
    <i name="e_wo_entrp">     -6.24562624 </i>
    <i name="e_0_energy">     -6.24562624 </i>
   </energy>
  </scstep>
  <scstep>
   <time name="dav">    1.82    1.82</time>
   <time name="total">    1.82    1.82</time>
   <energy>
    <i name="e_fr_energy">    -21.34306835 </i>
    <i name="e_wo_entrp">    -21.34306835 </i>
    <i name="e_0_energy">    -21.34306835 </i>
   </energy>
  </scstep>
  <scstep>
   <time name="dav">    1.89    1.89</time>
   <time name="total">    1.89    1.89</time>
   <energy>
    <i name="e_fr_energy">    -21.65769231 </i>
    <i name="e_wo_entrp">    -21.65769231 </i>
    <i name="e_0_energy">    -21.65769231 </i>
   </energy>
  </scstep>
  <scstep>
   <time name="dav">    1.99    1.99</time>
   <time name="total">    2.09    2.09</time>
   <energy>
    <i name="e_fr_energy">    -21.66733061 </i>
    <i name="e_wo_entrp">    -21.66733061 </i>
    <i name="e_0_energy">    -21.66733061 </i>
   </energy>
  </scstep>
  <scstep>
   <time name="dav">    1.80    1.80</time>
   <time name="total">    1.91    1.91</time>
   <energy>
    <i name="e_fr_energy">    -21.52313409 </i>
    <i name="e_wo_entrp">    -21.52313409 </i>
    <i name="e_0_energy">    -21.52313409 </i>
   </energy>
  </scstep>
  <scstep>
   <time name="dav">    1.72    1.72</time>
   <time name="total">    1.84    1.84</time>
   <energy>
    <i name="e_fr_energy">    -21.45498768 </i>
    <i name="e_wo_entrp">    -21.45498768 </i>
    <i name="e_0_energy">    -21.45498768 </i>
   </energy>
  </scstep>
  <scstep>
   <time name="dav">    1.85    1.85</time>
   <time name="total">    1.96    1.97</time>
   <energy>
    <i name="e_fr_energy">    -21.45432956 </i>
    <i name="e_wo_entrp">    -21.45432956 </i>
    <i name="e_0_energy">    -21.45432956 </i>
   </energy>
  </scstep>
  <scstep>
   <time name="dav">    2.12    2.12</time>
   <time name="total">    2.23    2.23</time>
   <energy>
    <i name="e_fr_energy">    -21.45418272 </i>
    <i name="e_wo_entrp">    -21.45418272 </i>
    <i name="e_0_energy">    -21.45418272 </i>
   </energy>
  </scstep>
  <scstep>
   <time name="dav">    1.81    1.81</time>
   <time name="total">    1.92    1.92</time>
   <energy>
    <i name="e_fr_energy">    -21.45400502 </i>
    <i name="e_wo_entrp">    -21.45400502 </i>
    <i name="e_0_energy">    -21.45400502 </i>
   </energy>
  </scstep>
  <scstep>
   <time name="dav">    1.82    1.82</time>
   <time name="total">    1.93    1.93</time>
   <energy>
    <i name="e_fr_energy">    -21.45390830 </i>
    <i name="e_wo_entrp">    -21.45390830 </i>
    <i name="e_0_energy">    -21.45390830 </i>
   </energy>
  </scstep>
  <scstep>
   <time name="dav">    1.62    1.62</time>
   <time name="total">    1.73    1.73</time>
   <energy>
    <i name="e_fr_energy">    -21.45429590 </i>
    <i name="e_wo_entrp">    -21.45429590 </i>
    <i name="e_0_energy">    -21.45429590 </i>
   </energy>
  </scstep>
  <scstep>
   <time name="dav">    1.62    1.62</time>
   <time name="total">    1.73    1.73</time>
   <energy>
    <i name="e_fr_energy">    -21.45439037 </i>
    <i name="e_wo_entrp">    -21.45439037 </i>
    <i name="e_0_energy">    -21.45439037 </i>
   </energy>
  </scstep>
  <scstep>
   <time name="dav">    1.49    1.49</time>
   <time name="total">    1.60    1.60</time>
   <energy>
    <i name="e_fr_energy">    -21.45452755 </i>
    <i name="e_wo_entrp">    -21.45452755 </i>
    <i name="e_0_energy">    -21.45452755 </i>
   </energy>
  </scstep>
  <scstep>
   <time name="dav">    1.55    1.55</time>
   <time name="total">    1.66    1.66</time>
   <energy>
    <i name="e_fr_energy">    -21.45456430 </i>
    <i name="e_wo_entrp">    -21.45456430 </i>
    <i name="e_0_energy">    -21.45456430 </i>
   </energy>
  </scstep>
  <scstep>
   <time name="dav">    1.46    1.46</time>
   <time name="total">    1.57    1.57</time>
   <energy>
    <i name="e_fr_energy">    -21.45459638 </i>
    <i name="e_wo_entrp">    -21.45459638 </i>
    <i name="e_0_energy">    -21.45459638 </i>
   </energy>
  </scstep>
  <scstep>
   <time name="dav">    1.47    1.47</time>
   <time name="total">    1.49    1.49</time>
   <energy>
    <i name="alphaZ">      5.25542318 </i>
    <i name="ewald">   1863.19599068 </i>
    <i name="hartreedc">  -2472.32423768 </i>
    <i name="XCdc">     14.09774633 </i>
    <i name="pawpsdc">   2103.20445359 </i>
    <i name="pawaedc">  -2070.89769385 </i>
    <i name="eentropy">     -0.00000000 </i>
    <i name="bandstr">   -168.15406650 </i>
    <i name="atom">    704.16778566 </i>
    <i name="e_fr_energy">    -21.45459860 </i>
    <i name="e_wo_entrp">    -21.45459860 </i>
    <i name="e_0_energy">    -21.45459860 </i>
   </energy>
  </scstep>
  <structure>
   <crystal>
    <varray name="basis" >
     <v>       3.29716300       0.01648600       0.00000000 </v>
     <v>       0.02311700       4.62329300      -0.00005300 </v>
     <v>       0.00000000       0.00000000      20.02439000 </v>
    </varray>
    <i name="volume">    305.23917600 </i>
    <varray name="rec_basis" >
     <v>       0.30329862      -0.00151653       0.00000000 </v>
     <v>      -0.00108152       0.21630145       0.00000000 </v>
     <v>      -0.00000000       0.00000057       0.04993910 </v>
    </varray>
   </crystal>
   <varray name="positions" >
    <v>       0.50000000       0.91077300       0.55252100 </v>
    <v>       0.50000000       0.08922700       0.44747900 </v>
    <v>       0.00000000       0.41076900       0.44747900 </v>
    <v>       0.00000000       0.58923100       0.55252100 </v>
   </varray>
  </structure>
  <varray name="forces" >
   <v>      -0.12952022       0.00874745      -0.00312385 </v>
   <v>       0.12952022      -0.00874745       0.00312385 </v>
   <v>      -0.12951919       0.00871523       0.00312522 </v>
   <v>       0.12951919      -0.00871523      -0.00312522 </v>
  </varray>
  <varray name="stress" >
   <v>       0.22703838      -2.84768430       0.00001961 </v>
   <v>      -2.84768427       0.12893032       0.00034353 </v>
   <v>       0.00001962       0.00034350      -0.13379148 </v>
  </varray>
  <energy>
   <i name="e_fr_energy">    -21.45459860 </i>
   <i name="e_wo_entrp">    -21.45459860 </i>
   <i name="e_0_energy">     -0.00000000 </i>
  </energy>
  <time name="totalsc">   31.63   31.68</time>
 </calculation>
 <calculation>
  <scstep>
   <time name="dav">    1.55    1.55</time>
   <time name="total">    1.66    1.66</time>
   <energy>
    <i name="alphaZ">      5.25542318 </i>
    <i name="ewald">   1863.22777668 </i>
    <i name="hartreedc">  -2472.38357751 </i>
    <i name="XCdc">     14.09684045 </i>
    <i name="pawpsdc">   2102.85404884 </i>
    <i name="pawaedc">  -2070.54733481 </i>
    <i name="eentropy">     -0.00000000 </i>
    <i name="bandstr">   -168.12677576 </i>
    <i name="atom">    704.16778566 </i>
    <i name="e_fr_energy">    -21.45581327 </i>
    <i name="e_wo_entrp">    -21.45581327 </i>
    <i name="e_0_energy">    -21.45581327 </i>
   </energy>
  </scstep>
  <scstep>
   <time name="dav">    1.85    1.85</time>
   <time name="total">    1.97    1.97</time>
   <energy>
    <i name="e_fr_energy">    -21.45599302 </i>
    <i name="e_wo_entrp">    -21.45599302 </i>
    <i name="e_0_energy">    -21.45599302 </i>
   </energy>
  </scstep>
  <scstep>
   <time name="dav">    1.91    1.91</time>
   <time name="total">    2.02    2.02</time>
   <energy>
    <i name="e_fr_energy">    -21.45598403 </i>
    <i name="e_wo_entrp">    -21.45598403 </i>
    <i name="e_0_energy">    -21.45598403 </i>
   </energy>
  </scstep>
  <scstep>
   <time name="dav">    1.39    1.39</time>
   <time name="total">    1.50    1.50</time>
   <energy>
    <i name="e_fr_energy">    -21.45598334 </i>
    <i name="e_wo_entrp">    -21.45598334 </i>
    <i name="e_0_energy">    -21.45598334 </i>
   </energy>
  </scstep>
  <scstep>
   <time name="dav">    1.30    1.30</time>
   <time name="total">    1.41    1.41</time>
   <energy>
    <i name="e_fr_energy">    -21.45598488 </i>
    <i name="e_wo_entrp">    -21.45598488 </i>
    <i name="e_0_energy">    -21.45598488 </i>
   </energy>
  </scstep>
  <scstep>
   <time name="dav">    1.23    1.23</time>
   <time name="total">    1.25    1.25</time>
   <energy>
    <i name="alphaZ">      5.25542318 </i>
    <i name="ewald">   1863.22777668 </i>
    <i name="hartreedc">  -2472.38693342 </i>
    <i name="XCdc">     14.09650673 </i>
    <i name="pawpsdc">   2101.78981818 </i>
    <i name="pawaedc">  -2069.48264464 </i>
    <i name="eentropy">     -0.00000000 </i>
    <i name="bandstr">   -168.12371792 </i>
    <i name="atom">    704.16778566 </i>
    <i name="e_fr_energy">    -21.45598556 </i>
    <i name="e_wo_entrp">    -21.45598556 </i>
    <i name="e_0_energy">    -21.45598556 </i>
   </energy>
  </scstep>
  <structure>
   <crystal>
    <varray name="basis" >
     <v>       3.29716300       0.01648600       0.00000000 </v>
     <v>       0.02311700       4.62329300      -0.00005300 </v>
     <v>       0.00000000       0.00000000      20.02439000 </v>
    </varray>
    <i name="volume">    305.23917600 </i>
    <varray name="rec_basis" >
     <v>       0.30329862      -0.00151653       0.00000000 </v>
     <v>      -0.00108152       0.21630145       0.00000000 </v>
     <v>      -0.00000000       0.00000057       0.04993910 </v>
    </varray>
   </crystal>
   <varray name="positions" >
    <v>       0.49886254       0.91083182       0.55251648 </v>
    <v>       0.50113746       0.08916818       0.44748352 </v>
    <v>      -0.00113745       0.41082762       0.44748352 </v>
    <v>       0.00113745       0.58917238       0.55251648 </v>
   </varray>
  </structure>
  <varray name="forces" >
   <v>      -0.05259472       0.00028167      -0.00116144 </v>
   <v>       0.05259472      -0.00028167       0.00116144 </v>
   <v>      -0.05259409       0.00025485       0.00116289 </v>
   <v>       0.05259409      -0.00025485      -0.00116289 </v>
  </varray>
  <varray name="stress" >
   <v>       0.16258897      -1.82177470       0.00001082 </v>
   <v>      -1.82177475       0.02353417       0.00029424 </v>
   <v>       0.00001085       0.00029424      -0.09706762 </v>
  </varray>
  <energy>
   <i name="e_fr_energy">    -21.45598556 </i>
   <i name="e_wo_entrp">    -21.45598556 </i>
   <i name="e_0_energy">     -0.00000000 </i>
  </energy>
  <time name="totalsc">   10.58   10.60</time>
 </calculation>
 <calculation>
  <scstep>
   <time name="dav">    1.54    1.54</time>
   <time name="total">    1.66    1.66</time>
   <energy>
    <i name="alphaZ">      5.25542318 </i>
    <i name="ewald">   1863.25229000 </i>
    <i name="hartreedc">  -2472.42078716 </i>
    <i name="XCdc">     14.09591884 </i>
    <i name="pawpsdc">   2101.78271883 </i>
    <i name="pawaedc">  -2069.47554492 </i>
    <i name="eentropy">     -0.00000000 </i>
    <i name="bandstr">   -168.11398194 </i>
    <i name="atom">    704.16778566 </i>
    <i name="e_fr_energy">    -21.45617750 </i>
    <i name="e_wo_entrp">    -21.45617750 </i>
    <i name="e_0_energy">    -21.45617750 </i>
   </energy>
  </scstep>
  <scstep>
   <time name="dav">    1.82    1.82</time>
   <time name="total">    1.93    1.94</time>
   <energy>
    <i name="e_fr_energy">    -21.45626063 </i>
    <i name="e_wo_entrp">    -21.45626063 </i>
    <i name="e_0_energy">    -21.45626063 </i>
   </energy>
  </scstep>
  <scstep>
   <time name="dav">    1.77    1.77</time>
   <time name="total">    1.88    1.88</time>
   <energy>
    <i name="e_fr_energy">    -21.45625610 </i>
    <i name="e_wo_entrp">    -21.45625610 </i>
    <i name="e_0_energy">    -21.45625610 </i>
   </energy>
  </scstep>
  <scstep>
   <time name="dav">    1.26    1.26</time>
   <time name="total">    1.37    1.38</time>
   <energy>
    <i name="e_fr_energy">    -21.45625529 </i>
    <i name="e_wo_entrp">    -21.45625529 </i>
    <i name="e_0_energy">    -21.45625529 </i>
   </energy>
  </scstep>
  <scstep>
   <time name="dav">    1.20    1.20</time>
   <time name="total">    1.31    1.31</time>
   <energy>
    <i name="e_fr_energy">    -21.45625562 </i>
    <i name="e_wo_entrp">    -21.45625562 </i>
    <i name="e_0_energy">    -21.45625562 </i>
   </energy>
  </scstep>
  <scstep>
   <time name="dav">    1.15    1.15</time>
   <time name="total">    1.17    1.17</time>
   <energy>
    <i name="alphaZ">      5.25542318 </i>
    <i name="ewald">   1863.25229000 </i>
    <i name="hartreedc">  -2472.42215908 </i>
    <i name="XCdc">     14.09576578 </i>
    <i name="pawpsdc">   2101.20049514 </i>
    <i name="pawaedc">  -2068.89308396 </i>
    <i name="eentropy">     -0.00000000 </i>
    <i name="bandstr">   -168.11277246 </i>
    <i name="atom">    704.16778566 </i>
    <i name="e_fr_energy">    -21.45625573 </i>
    <i name="e_wo_entrp">    -21.45625573 </i>
    <i name="e_0_energy">    -21.45625573 </i>
   </energy>
  </scstep>
  <structure>
   <crystal>
    <varray name="basis" >
     <v>       3.29716300       0.01648600       0.00000000 </v>
     <v>       0.02311700       4.62329300      -0.00005300 </v>
     <v>       0.00000000       0.00000000      20.02439000 </v>
    </varray>
    <i name="volume">    305.23917600 </i>
    <varray name="rec_basis" >
     <v>       0.30329862      -0.00151653       0.00000000 </v>
     <v>      -0.00108152       0.21630145       0.00000000 </v>
     <v>      -0.00000000       0.00000057       0.04993910 </v>
    </varray>
   </crystal>
   <varray name="positions" >
    <v>       0.49809037       0.91087175       0.55251342 </v>
    <v>       0.50190963       0.08912825       0.44748658 </v>
    <v>      -0.00190962       0.41086742       0.44748658 </v>
    <v>       0.00190962       0.58913258       0.55251342 </v>
   </varray>
  </structure>
  <varray name="forces" >
   <v>      -0.00049565      -0.00455892       0.00008399 </v>
   <v>       0.00049565       0.00455892      -0.00008399 </v>
   <v>      -0.00049515      -0.00458214      -0.00008318 </v>
   <v>       0.00049515       0.00458214       0.00008318 </v>
  </varray>
  <varray name="stress" >
   <v>       0.12926552      -1.13266065       0.00000474 </v>
   <v>      -1.13266060      -0.03140462       0.00025517 </v>
   <v>       0.00000469       0.00025515      -0.06980489 </v>
  </varray>
  <energy>
   <i name="e_fr_energy">    -21.45625573 </i>
   <i name="e_wo_entrp">    -21.45625573 </i>
   <i name="e_0_energy">     -0.00000000 </i>
  </energy>
  <time name="totalsc">   10.03   10.05</time>
  <eigenvalues>
   <array>
    <dimension dim="1">band</dimension>
    <dimension dim="2">kpoint</dimension>
    <dimension dim="3">spin</dimension>
    <field>eigene</field>
    <field>occ</field>
    <set>
     <set comment="spin 1">
      <set comment="kpoint 1">
       <r>  -17.2306    1.0000 </r>
       <r>  -14.7711    1.0000 </r>
       <r>  -11.4470    1.0000 </r>
       <r>   -7.9368    1.0000 </r>
       <r>   -6.9809    1.0000 </r>
       <r>   -6.7703    1.0000 </r>
       <r>   -5.5838    1.0000 </r>
       <r>   -4.0078    1.0000 </r>
       <r>   -3.9311    1.0000 </r>
       <r>   -2.2808    1.0000 </r>
       <r>   -1.3748    0.0000 </r>
       <r>   -0.6204    0.0000 </r>
       <r>    0.4095    0.0000 </r>
       <r>    1.0448    0.0000 </r>
       <r>    2.1340    0.0000 </r>
       <r>    2.2938    0.0000 </r>
      </set>
      <set comment="kpoint 2">
       <r>  -17.2036    1.0000 </r>
       <r>  -14.7429    1.0000 </r>
       <r>  -11.4559    1.0000 </r>
       <r>   -7.9162    1.0000 </r>
       <r>   -6.9988    1.0000 </r>
       <r>   -6.7464    1.0000 </r>
       <r>   -5.7594    1.0000 </r>
       <r>   -4.1920    1.0000 </r>
       <r>   -3.9200    1.0000 </r>
       <r>   -2.2806    1.0000 </r>
       <r>   -1.3495    0.0000 </r>
       <r>   -0.3765    0.0000 </r>
       <r>    0.6437    0.0000 </r>
       <r>    0.8855    0.0000 </r>
       <r>    2.1621    0.0000 </r>
       <r>    2.3240    0.0000 </r>
      </set>
      <set comment="kpoint 3">
       <r>  -17.1226    1.0000 </r>
       <r>  -14.6583    1.0000 </r>
       <r>  -11.4883    1.0000 </r>
       <r>   -7.8552    1.0000 </r>
       <r>   -7.0721    1.0000 </r>
       <r>   -6.6753    1.0000 </r>
       <r>   -6.1876    1.0000 </r>
       <r>   -4.6168    1.0000 </r>
       <r>   -3.8900    1.0000 </r>
       <r>   -2.2993    1.0000 </r>
       <r>   -1.2739    0.0000 </r>
       <r>    0.2764    0.0000 </r>
       <r>    0.4569    0.0000 </r>
       <r>    1.2501    0.0000 </r>
       <r>    2.2422    0.0000 </r>
       <r>    2.4144    0.0000 </r>
      </set>
      <set comment="kpoint 4">
       <r>  -16.9880    1.0000 </r>
       <r>  -14.5174    1.0000 </r>
       <r>  -11.5603    1.0000 </r>
       <r>   -7.7563    1.0000 </r>
       <r>   -7.2629    1.0000 </r>
       <r>   -6.6991    1.0000 </r>
       <r>   -6.5568    1.0000 </r>
       <r>   -5.0501    1.0000 </r>
       <r>   -3.8529    1.0000 </r>
       <r>   -2.3583    1.0000 </r>
       <r>   -1.1492    0.0000 </r>
       <r>   -0.0510    0.0000 </r>
       <r>    1.1877    0.0000 </r>
       <r>    1.8689    0.0000 </r>
       <r>    2.3200    0.0000 </r>
       <r>    2.5644    0.0000 </r>
      </set>
      <set comment="kpoint 5">
       <r>  -16.8005    1.0000 </r>
       <r>  -14.3206    1.0000 </r>
       <r>  -11.6974    1.0000 </r>
       <r>   -7.6416    1.0000 </r>
       <r>   -7.6241    1.0000 </r>
       <r>   -7.1648    1.0000 </r>
       <r>   -6.3968    1.0000 </r>
       <r>   -5.3197    1.0000 </r>
       <r>   -3.8315    1.0000 </r>
       <r>   -2.4690    1.0000 </r>
       <r>   -0.9785    0.0000 </r>
       <r>   -0.5413    0.0000 </r>
       <r>    1.8599    0.0000 </r>
       <r>    1.9561    0.0000 </r>
       <r>    2.2071    0.0000 </r>
       <r>    2.6884    0.0000 </r>
      </set>
      <set comment="kpoint 6">
       <r>  -16.5610    1.0000 </r>
       <r>  -14.0683    1.0000 </r>
       <r>  -11.9255    1.0000 </r>
       <r>   -8.1960    1.0000 </r>
       <r>   -7.5111    1.0000 </r>
       <r>   -7.4669    1.0000 </r>
       <r>   -6.1967    1.0000 </r>
       <r>   -5.3923    1.0000 </r>
       <r>   -3.8599    1.0000 </r>
       <r>   -2.6402    1.0000 </r>
       <r>   -0.9236    0.0000 </r>
       <r>   -0.7688    0.0000 </r>
       <r>    1.2800    0.0000 </r>
       <r>    1.3784    0.0000 </r>
       <r>    2.5925    0.0000 </r>
       <r>    2.9387    0.0000 </r>
      </set>
      <set comment="kpoint 7">
       <r>  -16.2710    1.0000 </r>
       <r>  -13.7612    1.0000 </r>
       <r>  -12.2560    1.0000 </r>
       <r>   -8.8449    1.0000 </r>
       <r>   -7.7023    1.0000 </r>
       <r>   -7.2991    1.0000 </r>
       <r>   -5.9639    1.0000 </r>
       <r>   -5.3329    1.0000 </r>
       <r>   -3.9675    1.0000 </r>
       <r>   -2.8751    1.0000 </r>
       <r>   -1.1301    0.0000 </r>
       <r>   -0.5422    0.0000 </r>
       <r>    0.6303    0.0000 </r>
       <r>    0.8345    0.0000 </r>
       <r>    2.1335    0.0000 </r>
       <r>    3.2671    0.0000 </r>
      </set>
      <set comment="kpoint 8">
       <r>  -15.9323    1.0000 </r>
       <r>  -13.3999    1.0000 </r>
       <r>  -12.6755    1.0000 </r>
       <r>   -9.5220    1.0000 </r>
       <r>   -7.7422    1.0000 </r>
       <r>   -7.1449    1.0000 </r>
       <r>   -5.7094    1.0000 </r>
       <r>   -5.2091    1.0000 </r>
       <r>   -4.1400    1.0000 </r>
       <r>   -3.1651    1.0000 </r>
       <r>   -1.1381    0.0000 </r>
       <r>   -0.3959    0.0000 </r>
       <r>    0.0296    0.0000 </r>
       <r>    0.4610    0.0000 </r>
       <r>    1.6261    0.0000 </r>
       <r>    3.0319    0.0000 </r>
      </set>
      <set comment="kpoint 9">
       <r>  -15.5478    1.0000 </r>
       <r>  -13.1550    1.0000 </r>
       <r>  -12.9845    1.0000 </r>
       <r>  -10.1915    1.0000 </r>
       <r>   -7.6609    1.0000 </r>
       <r>   -7.0417    1.0000 </r>
       <r>   -5.4504    1.0000 </r>
       <r>   -5.0728    1.0000 </r>
       <r>   -4.3062    1.0000 </r>
       <r>   -3.4889    1.0000 </r>
       <r>   -0.9761    0.0000 </r>
       <r>   -0.5457    0.0000 </r>
       <r>   -0.4733    0.0000 </r>
       <r>    0.5015    0.0000 </r>
       <r>    1.1174    0.0000 </r>
       <r>    2.6165    0.0000 </r>
      </set>
      <set comment="kpoint 10">
       <r>  -15.1214    1.0000 </r>
       <r>  -13.6600    1.0000 </r>
       <r>  -12.5191    1.0000 </r>
       <r>  -10.8344    1.0000 </r>
       <r>   -7.4997    1.0000 </r>
       <r>   -7.0315    1.0000 </r>
       <r>   -5.2137    1.0000 </r>
       <r>   -4.9720    1.0000 </r>
       <r>   -4.3781    1.0000 </r>
       <r>   -3.8149    1.0000 </r>
       <r>   -0.8439    0.0000 </r>
       <r>   -0.8249    0.0000 </r>
       <r>   -0.6808    0.0000 </r>
       <r>    0.6112    0.0000 </r>
       <r>    0.8243    0.0000 </r>
       <r>    2.1555    0.0000 </r>
      </set>
      <set comment="kpoint 11">
       <r>  -14.6585    1.0000 </r>
       <r>  -14.1673    1.0000 </r>
       <r>  -12.0033    1.0000 </r>
       <r>  -11.4404    1.0000 </r>
       <r>   -7.3048    1.0000 </r>
       <r>   -7.1299    1.0000 </r>
       <r>   -5.0358    1.0000 </r>
       <r>   -4.9515    1.0000 </r>
       <r>   -4.3062    1.0000 </r>
       <r>   -4.1031    1.0000 </r>
       <r>   -1.0246    0.0000 </r>
       <r>   -1.0112    0.0000 </r>
       <r>   -0.3071    0.0000 </r>
       <r>    0.1324    0.0000 </r>
       <r>    1.2335    0.0000 </r>
       <r>    1.6859    0.0000 </r>
      </set>
      <set comment="kpoint 12">
       <r>  -17.2092    1.0000 </r>
       <r>  -14.8013    1.0000 </r>
       <r>  -11.4550    1.0000 </r>
       <r>   -8.0939    1.0000 </r>
       <r>   -6.8839    1.0000 </r>
       <r>   -6.6777    1.0000 </r>
       <r>   -5.5673    1.0000 </r>
       <r>   -4.0230    1.0000 </r>
       <r>   -3.8360    1.0000 </r>
       <r>   -2.4816    1.0000 </r>
       <r>   -1.1886    0.0000 </r>
       <r>   -0.6037    0.0000 </r>
       <r>    0.3639    0.0000 </r>
       <r>    1.0309    0.0000 </r>
       <r>    2.1923    0.0000 </r>
       <r>    2.3241    0.0000 </r>
      </set>
      <set comment="kpoint 13">
       <r>  -17.1827    1.0000 </r>
       <r>  -14.7728    1.0000 </r>
       <r>  -11.4612    1.0000 </r>
       <r>   -8.0756    1.0000 </r>
       <r>   -6.8954    1.0000 </r>
       <r>   -6.6684    1.0000 </r>
       <r>   -5.7298    1.0000 </r>
       <r>   -4.2184    1.0000 </r>
       <r>   -3.8266    1.0000 </r>
       <r>   -2.4748    1.0000 </r>
       <r>   -1.1692    0.0000 </r>
       <r>   -0.3632    0.0000 </r>
       <r>    0.5773    0.0000 </r>
       <r>    0.8999    0.0000 </r>
       <r>    2.2182    0.0000 </r>
       <r>    2.3535    0.0000 </r>
      </set>
      <set comment="kpoint 14">
       <r>  -17.1022    1.0000 </r>
       <r>  -14.6882    1.0000 </r>
       <r>  -11.4881    1.0000 </r>
       <r>   -8.0280    1.0000 </r>
       <r>   -6.9472    1.0000 </r>
       <r>   -6.6553    1.0000 </r>
       <r>   -6.1049    1.0000 </r>
       <r>   -4.6551    1.0000 </r>
       <r>   -3.8071    1.0000 </r>
       <r>   -2.4758    1.0000 </r>
       <r>   -1.1103    0.0000 </r>
       <r>    0.2867    0.0000 </r>
       <r>    0.4261    0.0000 </r>
       <r>    1.2482    0.0000 </r>
       <r>    2.2936    0.0000 </r>
       <r>    2.4429    0.0000 </r>
      </set>
      <set comment="kpoint 15">
       <r>  -16.9682    1.0000 </r>
       <r>  -14.5478    1.0000 </r>
       <r>  -11.5521    1.0000 </r>
       <r>   -7.9705    1.0000 </r>
       <r>   -7.0868    1.0000 </r>
       <r>   -6.8396    1.0000 </r>
       <r>   -6.3227    1.0000 </r>
       <r>   -5.0985    1.0000 </r>
       <r>   -3.7890    1.0000 </r>
       <r>   -2.5066    1.0000 </r>
       <r>   -1.0116    0.0000 </r>
       <r>   -0.0552    0.0000 </r>
       <r>    1.1923    0.0000 </r>
       <r>    1.8907    0.0000 </r>
       <r>    2.3129    0.0000 </r>
       <r>    2.5471    0.0000 </r>
      </set>
      <set comment="kpoint 16">
       <r>  -16.7814    1.0000 </r>
       <r>  -14.3522    1.0000 </r>
       <r>  -11.6789    1.0000 </r>
       <r>   -7.9909    1.0000 </r>
       <r>   -7.3092    1.0000 </r>
       <r>   -7.2421    1.0000 </r>
       <r>   -6.2392    1.0000 </r>
       <r>   -5.3709    1.0000 </r>
       <r>   -3.7953    1.0000 </r>
       <r>   -2.5840    1.0000 </r>
       <r>   -0.8708    0.0000 </r>
       <r>   -0.5152    0.0000 </r>
       <r>    1.7360    0.0000 </r>
       <r>    1.9662    0.0000 </r>
       <r>    2.2690    0.0000 </r>
       <r>    2.6496    0.0000 </r>
      </set>
      <set comment="kpoint 17">
       <r>  -16.5427    1.0000 </r>
       <r>  -14.1024    1.0000 </r>
       <r>  -11.8955    1.0000 </r>
       <r>   -8.3208    1.0000 </r>
       <r>   -7.5752    1.0000 </r>
       <r>   -7.3785    1.0000 </r>
       <r>   -6.0687    1.0000 </r>
       <r>   -5.4411    1.0000 </r>
       <r>   -3.8569    1.0000 </r>
       <r>   -2.7225    1.0000 </r>
       <r>   -0.8602    0.0000 </r>
       <r>   -0.6902    0.0000 </r>
       <r>    1.1614    0.0000 </r>
       <r>    1.4139    0.0000 </r>
       <r>    2.6703    0.0000 </r>
       <r>    3.0630    0.0000 </r>
      </set>
      <set comment="kpoint 18">
       <r>  -16.2536    1.0000 </r>
       <r>  -13.8009    1.0000 </r>
       <r>  -12.2130    1.0000 </r>
       <r>   -8.9047    1.0000 </r>
       <r>   -7.7611    1.0000 </r>
       <r>   -7.2760    1.0000 </r>
       <r>   -5.8602    1.0000 </r>
       <r>   -5.3856    1.0000 </r>
       <r>   -3.9894    1.0000 </r>
       <r>   -2.9275    1.0000 </r>
       <r>   -1.0309    0.0000 </r>
       <r>   -0.4914    0.0000 </r>
       <r>    0.6258    0.0000 </r>
       <r>    0.7657    0.0000 </r>
       <r>    2.3443    0.0000 </r>
       <r>    3.2511    0.0000 </r>
      </set>
      <set comment="kpoint 19">
       <r>  -15.9161    1.0000 </r>
       <r>  -13.4583    1.0000 </r>
       <r>  -12.6095    1.0000 </r>
       <r>   -9.5603    1.0000 </r>
       <r>   -7.7957    1.0000 </r>
       <r>   -7.1400    1.0000 </r>
       <r>   -5.6343    1.0000 </r>
       <r>   -5.2835    1.0000 </r>
       <r>   -4.1563    1.0000 </r>
       <r>   -3.1894    1.0000 </r>
       <r>   -1.0179    0.0000 </r>
       <r>   -0.3997    0.0000 </r>
       <r>    0.1584    0.0000 </r>
       <r>    0.2958    0.0000 </r>
       <r>    1.8839    0.0000 </r>
       <r>    2.9704    0.0000 </r>
      </set>
      <set comment="kpoint 20">
       <r>  -15.5331    1.0000 </r>
       <r>  -13.2513    1.0000 </r>
       <r>  -12.8787    1.0000 </r>
       <r>  -10.2198    1.0000 </r>
       <r>   -7.7070    1.0000 </r>
       <r>   -7.0425    1.0000 </r>
       <r>   -5.4163    1.0000 </r>
       <r>   -5.1955    1.0000 </r>
       <r>   -4.2702    1.0000 </r>
       <r>   -3.4816    1.0000 </r>
       <r>   -0.8650    0.0000 </r>
       <r>   -0.6281    0.0000 </r>
       <r>   -0.3456    0.0000 </r>
       <r>    0.4011    0.0000 </r>
       <r>    1.4078    0.0000 </r>
       <r>    2.5647    0.0000 </r>
      </set>
      <set comment="kpoint 21">
       <r>  -15.1088    1.0000 </r>
       <r>  -13.6572    1.0000 </r>
       <r>  -12.5121    1.0000 </r>
       <r>  -10.8564    1.0000 </r>
       <r>   -7.5360    1.0000 </r>
       <r>   -7.0395    1.0000 </r>
       <r>   -5.2414    1.0000 </r>
       <r>   -5.1416    1.0000 </r>
       <r>   -4.2680    1.0000 </r>
       <r>   -3.7654    1.0000 </r>
       <r>   -0.9183    0.0000 </r>
       <r>   -0.8370    0.0000 </r>
       <r>   -0.4806    0.0000 </r>
       <r>    0.6221    0.0000 </r>
       <r>    1.0294    0.0000 </r>
       <r>    2.1148    0.0000 </r>
      </set>
      <set comment="kpoint 22">
       <r>  -14.6495    1.0000 </r>
       <r>  -14.1514    1.0000 </r>
       <r>  -12.0101    1.0000 </r>
       <r>  -11.4566    1.0000 </r>
       <r>   -7.3296    1.0000 </r>
       <r>   -7.1515    1.0000 </r>
       <r>   -5.1470    1.0000 </r>
       <r>   -5.1003    1.0000 </r>
       <r>   -4.1712    1.0000 </r>
       <r>   -4.0007    1.0000 </r>
       <r>   -1.0888    0.0000 </r>
       <r>   -1.0207    0.0000 </r>
       <r>   -0.1526    0.0000 </r>
       <r>    0.3427    0.0000 </r>
       <r>    1.2419    0.0000 </r>
       <r>    1.6627    0.0000 </r>
      </set>
      <set comment="kpoint 23">
       <r>  -14.6381    1.0000 </r>
       <r>  -14.1650    1.0000 </r>
       <r>  -12.0116    1.0000 </r>
       <r>  -11.4533    1.0000 </r>
       <r>   -7.3418    1.0000 </r>
       <r>   -7.1439    1.0000 </r>
       <r>   -5.1351    1.0000 </r>
       <r>   -5.0991    1.0000 </r>
       <r>   -4.1685    1.0000 </r>
       <r>   -4.0066    1.0000 </r>
       <r>   -1.0807    0.0000 </r>
       <r>   -1.0351    0.0000 </r>
       <r>   -0.0700    0.0000 </r>
       <r>    0.2446    0.0000 </r>
       <r>    1.2500    0.0000 </r>
       <r>    1.6689    0.0000 </r>
      </set>
      <set comment="kpoint 24">
       <r>  -15.0991    1.0000 </r>
       <r>  -13.6754    1.0000 </r>
       <r>  -12.5095    1.0000 </r>
       <r>  -10.8520    1.0000 </r>
       <r>   -7.5493    1.0000 </r>
       <r>   -7.0400    1.0000 </r>
       <r>   -5.1902    1.0000 </r>
       <r>   -5.1579    1.0000 </r>
       <r>   -4.2671    1.0000 </r>
       <r>   -3.7715    1.0000 </r>
       <r>   -0.9060    0.0000 </r>
       <r>   -0.8664    0.0000 </r>
       <r>   -0.4070    0.0000 </r>
       <r>    0.5226    0.0000 </r>
       <r>    1.0382    0.0000 </r>
       <r>    2.1275    0.0000 </r>
      </set>
      <set comment="kpoint 25">
       <r>  -15.5248    1.0000 </r>
       <r>  -13.2829    1.0000 </r>
       <r>  -12.8631    1.0000 </r>
       <r>  -10.2148    1.0000 </r>
       <r>   -7.7191    1.0000 </r>
       <r>   -7.0515    1.0000 </r>
       <r>   -5.3685    1.0000 </r>
       <r>   -5.1980    1.0000 </r>
       <r>   -4.2650    1.0000 </r>
       <r>   -3.4869    1.0000 </r>
       <r>   -0.8573    0.0000 </r>
       <r>   -0.5787    0.0000 </r>
       <r>   -0.3661    0.0000 </r>
       <r>    0.3700    0.0000 </r>
       <r>    1.3530    0.0000 </r>
       <r>    2.5804    0.0000 </r>
      </set>
      <set comment="kpoint 26">
       <r>  -15.9090    1.0000 </r>
       <r>  -13.4728    1.0000 </r>
       <r>  -12.6111    1.0000 </r>
       <r>   -9.5552    1.0000 </r>
       <r>   -7.8053    1.0000 </r>
       <r>   -7.1539    1.0000 </r>
       <r>   -5.5930    1.0000 </r>
       <r>   -5.2808    1.0000 </r>
       <r>   -4.1413    1.0000 </r>
       <r>   -3.1950    1.0000 </r>
       <r>   -0.9948    0.0000 </r>
       <r>   -0.3767    0.0000 </r>
       <r>    0.1059    0.0000 </r>
       <r>    0.3168    0.0000 </r>
       <r>    1.8105    0.0000 </r>
       <r>    2.9874    0.0000 </r>
      </set>
      <set comment="kpoint 27">
       <r>  -16.2476    1.0000 </r>
       <r>  -13.8095    1.0000 </r>
       <r>  -12.2204    1.0000 </r>
       <r>   -8.9005    1.0000 </r>
       <r>   -7.7675    1.0000 </r>
       <r>   -7.2907    1.0000 </r>
       <r>   -5.8266    1.0000 </r>
       <r>   -5.3813    1.0000 </r>
       <r>   -3.9658    1.0000 </r>
       <r>   -2.9347    1.0000 </r>
       <r>   -1.0106    0.0000 </r>
       <r>   -0.4905    0.0000 </r>
       <r>    0.6866    0.0000 </r>
       <r>    0.7016    0.0000 </r>
       <r>    2.2662    0.0000 </r>
       <r>    3.2773    0.0000 </r>
      </set>
      <set comment="kpoint 28">
       <r>  -16.5377    1.0000 </r>
       <r>  -14.1085    1.0000 </r>
       <r>  -11.9044    1.0000 </r>
       <r>   -8.3197    1.0000 </r>
       <r>   -7.5776    1.0000 </r>
       <r>   -7.3902    1.0000 </r>
       <r>   -6.0442    1.0000 </r>
       <r>   -5.4353    1.0000 </r>
       <r>   -3.8296    1.0000 </r>
       <r>   -2.7318    1.0000 </r>
       <r>   -0.8430    0.0000 </r>
       <r>   -0.6893    0.0000 </r>
       <r>    1.2345    0.0000 </r>
       <r>    1.3419    0.0000 </r>
       <r>    2.6184    0.0000 </r>
       <r>    3.0693    0.0000 </r>
      </set>
      <set comment="kpoint 29">
       <r>  -16.7775    1.0000 </r>
       <r>  -14.3567    1.0000 </r>
       <r>  -11.6877    1.0000 </r>
       <r>   -7.9971    1.0000 </r>
       <r>   -7.3134    1.0000 </r>
       <r>   -7.2384    1.0000 </r>
       <r>   -6.2263    1.0000 </r>
       <r>   -5.3627    1.0000 </r>
       <r>   -3.7696    1.0000 </r>
       <r>   -2.5949    1.0000 </r>
       <r>   -0.8673    0.0000 </r>
       <r>   -0.4982    0.0000 </r>
       <r>    1.7983    0.0000 </r>
       <r>    1.8918    0.0000 </r>
       <r>    2.2988    0.0000 </r>
       <r>    2.6574    0.0000 </r>
      </set>
      <set comment="kpoint 30">
       <r>  -16.9653    1.0000 </r>
       <r>  -14.5510    1.0000 </r>
       <r>  -11.5595    1.0000 </r>
       <r>   -7.9789    1.0000 </r>
       <r>   -7.0882    1.0000 </r>
       <r>   -6.8201    1.0000 </r>
       <r>   -6.3314    1.0000 </r>
       <r>   -5.0882    1.0000 </r>
       <r>   -3.7683    1.0000 </r>
       <r>   -2.5174    1.0000 </r>
       <r>   -1.0065    0.0000 </r>
       <r>   -0.0352    0.0000 </r>
       <r>    1.2030    0.0000 </r>
       <r>    1.8403    0.0000 </r>
       <r>    2.3497    0.0000 </r>
       <r>    2.5962    0.0000 </r>
      </set>
      <set comment="kpoint 31">
       <r>  -17.1003    1.0000 </r>
       <r>  -14.6903    1.0000 </r>
       <r>  -11.4934    1.0000 </r>
       <r>   -8.0343    1.0000 </r>
       <r>   -6.9483    1.0000 </r>
       <r>   -6.6286    1.0000 </r>
       <r>   -6.1261    1.0000 </r>
       <r>   -4.6449    1.0000 </r>
       <r>   -3.7931    1.0000 </r>
       <r>   -2.4846    1.0000 </r>
       <r>   -1.1052    0.0000 </r>
       <r>    0.2967    0.0000 </r>
       <r>    0.4574    0.0000 </r>
       <r>    1.2036    0.0000 </r>
       <r>    2.2973    0.0000 </r>
       <r>    2.4459    0.0000 </r>
      </set>
      <set comment="kpoint 32">
       <r>  -17.1817    1.0000 </r>
       <r>  -14.7738    1.0000 </r>
       <r>  -11.4639    1.0000 </r>
       <r>   -8.0789    1.0000 </r>
       <r>   -6.8961    1.0000 </r>
       <r>   -6.6568    1.0000 </r>
       <r>   -5.7398    1.0000 </r>
       <r>   -4.2112    1.0000 </r>
       <r>   -3.8202    1.0000 </r>
       <r>   -2.4798    1.0000 </r>
       <r>   -1.1657    0.0000 </r>
       <r>   -0.3573    0.0000 </r>
       <r>    0.6068    0.0000 </r>
       <r>    0.8645    0.0000 </r>
       <r>    2.2201    0.0000 </r>
       <r>    2.3550    0.0000 </r>
      </set>
      <set comment="kpoint 33">
       <r>  -17.1452    1.0000 </r>
       <r>  -14.8919    1.0000 </r>
       <r>  -11.4668    1.0000 </r>
       <r>   -8.4479    1.0000 </r>
       <r>   -6.6887    1.0000 </r>
       <r>   -6.4139    1.0000 </r>
       <r>   -5.5185    1.0000 </r>
       <r>   -4.0692    1.0000 </r>
       <r>   -3.5806    1.0000 </r>
       <r>   -2.8789    1.0000 </r>
       <r>   -0.8304    0.0000 </r>
       <r>   -0.5534    0.0000 </r>
       <r>    0.2309    0.0000 </r>
       <r>    0.9980    0.0000 </r>
       <r>    2.3597    0.0000 </r>
       <r>    2.4143    0.0000 </r>
      </set>
      <set comment="kpoint 34">
       <r>  -17.1192    1.0000 </r>
       <r>  -14.8632    1.0000 </r>
       <r>  -11.4687    1.0000 </r>
       <r>   -8.4322    1.0000 </r>
       <r>   -6.6911    1.0000 </r>
       <r>   -6.4410    1.0000 </r>
       <r>   -5.6465    1.0000 </r>
       <r>   -4.2777    1.0000 </r>
       <r>   -3.5812    1.0000 </r>
       <r>   -2.8674    1.0000 </r>
       <r>   -0.8166    0.0000 </r>
       <r>   -0.3161    0.0000 </r>
       <r>    0.4412    0.0000 </r>
       <r>    0.8918    0.0000 </r>
       <r>    2.3814    0.0000 </r>
       <r>    2.4427    0.0000 </r>
      </set>
      <set comment="kpoint 35">
       <r>  -17.0395    1.0000 </r>
       <r>  -14.7795    1.0000 </r>
       <r>  -11.4842    1.0000 </r>
       <r>   -8.3955    1.0000 </r>
       <r>   -6.7152    1.0000 </r>
       <r>   -6.5746    1.0000 </r>
       <r>   -5.8838    1.0000 </r>
       <r>   -4.7416    1.0000 </r>
       <r>   -3.5869    1.0000 </r>
       <r>   -2.8506    1.0000 </r>
       <r>   -0.7752    0.0000 </r>
       <r>    0.3283    0.0000 </r>
       <r>    0.3950    0.0000 </r>
       <r>    1.1885    0.0000 </r>
       <r>    2.4456    0.0000 </r>
       <r>    2.5306    0.0000 </r>
      </set>
      <set comment="kpoint 36">
       <r>  -16.9063    1.0000 </r>
       <r>  -14.6412    1.0000 </r>
       <r>  -11.5293    1.0000 </r>
       <r>   -8.3588    1.0000 </r>
       <r>   -6.9307    1.0000 </r>
       <r>   -6.8129    1.0000 </r>
       <r>   -5.9503    1.0000 </r>
       <r>   -5.2117    1.0000 </r>
       <r>   -3.6163    1.0000 </r>
       <r>   -2.8459    1.0000 </r>
       <r>   -0.7067    0.0000 </r>
       <r>   -0.0158    0.0000 </r>
       <r>    1.2094    0.0000 </r>
       <r>    1.8749    0.0000 </r>
       <r>    2.0680    0.0000 </r>
       <r>    2.5580    0.0000 </r>
      </set>
      <set comment="kpoint 37">
       <r>  -16.7205    1.0000 </r>
       <r>  -14.4496    1.0000 </r>
       <r>  -11.6302    1.0000 </r>
       <r>   -8.3830    1.0000 </r>
       <r>   -7.3591    1.0000 </r>
       <r>   -7.0278    1.0000 </r>
       <r>   -5.8735    1.0000 </r>
       <r>   -5.4898    1.0000 </r>
       <r>   -3.6926    1.0000 </r>
       <r>   -2.8708    1.0000 </r>
       <r>   -0.6098    0.0000 </r>
       <r>   -0.3934    0.0000 </r>
       <r>    1.3563    0.0000 </r>
       <r>    2.1512    0.0000 </r>
       <r>    2.3553    0.0000 </r>
       <r>    2.6797    0.0000 </r>
      </set>
      <set comment="kpoint 38">
       <r>  -16.4831    1.0000 </r>
       <r>  -14.2070    1.0000 </r>
       <r>  -11.8161    1.0000 </r>
       <r>   -8.5996    1.0000 </r>
       <r>   -7.7022    1.0000 </r>
       <r>   -7.2225    1.0000 </r>
       <r>   -5.7366    1.0000 </r>
       <r>   -5.5517    1.0000 </r>
       <r>   -3.8343    1.0000 </r>
       <r>   -2.9436    1.0000 </r>
       <r>   -0.6435    0.0000 </r>
       <r>   -0.4842    0.0000 </r>
       <r>    0.7883    0.0000 </r>
       <r>    1.7037    0.0000 </r>
       <r>    2.7378    0.0000 </r>
       <r>    3.1001    0.0000 </r>
      </set>
      <set comment="kpoint 39">
       <r>  -16.1956    1.0000 </r>
       <r>  -13.9198    1.0000 </r>
       <r>  -12.1000    1.0000 </r>
       <r>   -9.0678    1.0000 </r>
       <r>   -7.8945    1.0000 </r>
       <r>   -7.2388    1.0000 </r>
       <r>   -5.5759    1.0000 </r>
       <r>   -5.5081    1.0000 </r>
       <r>   -4.0228    1.0000 </r>
       <r>   -3.0750    1.0000 </r>
       <r>   -0.7297    0.0000 </r>
       <r>   -0.3503    0.0000 </r>
       <r>    0.2800    0.0000 </r>
       <r>    1.0768    0.0000 </r>
       <r>    2.6205    0.0000 </r>
       <r>    3.0962    0.0000 </r>
      </set>
      <set comment="kpoint 40">
       <r>  -15.8605    1.0000 </r>
       <r>  -13.6111    1.0000 </r>
       <r>  -12.4503    1.0000 </r>
       <r>   -9.6680    1.0000 </r>
       <r>   -7.9275    1.0000 </r>
       <r>   -7.1457    1.0000 </r>
       <r>   -5.4632    1.0000 </r>
       <r>   -5.4224    1.0000 </r>
       <r>   -4.1800    1.0000 </r>
       <r>   -3.2557    1.0000 </r>
       <r>   -0.6673    0.0000 </r>
       <r>   -0.4272    0.0000 </r>
       <r>    0.0928    0.0000 </r>
       <r>    0.4672    0.0000 </r>
       <r>    2.3228    0.0000 </r>
       <r>    2.8205    0.0000 </r>
      </set>
      <set comment="kpoint 41">
       <r>  -15.4809    1.0000 </r>
       <r>  -13.4204    1.0000 </r>
       <r>  -12.6975    1.0000 </r>
       <r>  -10.2997    1.0000 </r>
       <r>   -7.8282    1.0000 </r>
       <r>   -7.0544    1.0000 </r>
       <r>   -5.4716    1.0000 </r>
       <r>   -5.3151    1.0000 </r>
       <r>   -4.2117    1.0000 </r>
       <r>   -3.4538    1.0000 </r>
       <r>   -0.7628    0.0000 </r>
       <r>   -0.5371    0.0000 </r>
       <r>   -0.0209    0.0000 </r>
       <r>    0.2969    0.0000 </r>
       <r>    1.9295    0.0000 </r>
       <r>    2.4369    0.0000 </r>
      </set>
      <set comment="kpoint 42">
       <r>  -15.0620    1.0000 </r>
       <r>  -13.6706    1.0000 </r>
       <r>  -12.4855    1.0000 </r>
       <r>  -10.9184    1.0000 </r>
       <r>   -7.6377    1.0000 </r>
       <r>   -7.0582    1.0000 </r>
       <r>   -5.4785    1.0000 </r>
       <r>   -5.2940    1.0000 </r>
       <r>   -4.1125    1.0000 </r>
       <r>   -3.6330    1.0000 </r>
       <r>   -1.0270    0.0000 </r>
       <r>   -0.6812    0.0000 </r>
       <r>   -0.0421    0.0000 </r>
       <r>    0.5669    0.0000 </r>
       <r>    1.5269    0.0000 </r>
       <r>    2.0176    0.0000 </r>
      </set>
      <set comment="kpoint 43">
       <r>  -14.6119    1.0000 </r>
       <r>  -14.1191    1.0000 </r>
       <r>  -12.0312    1.0000 </r>
       <r>  -11.5021    1.0000 </r>
       <r>   -7.4033    1.0000 </r>
       <r>   -7.1967    1.0000 </r>
       <r>   -5.4062    1.0000 </r>
       <r>   -5.3633    1.0000 </r>
       <r>   -3.9554    1.0000 </r>
       <r>   -3.7895    1.0000 </r>
       <r>   -1.1273    0.0000 </r>
       <r>   -0.9471    0.0000 </r>
       <r>    0.2518    0.0000 </r>
       <r>    0.6560    0.0000 </r>
       <r>    1.3573    0.0000 </r>
       <r>    1.6218    0.0000 </r>
      </set>
      <set comment="kpoint 44">
       <r>  -14.5893    1.0000 </r>
       <r>  -14.1463    1.0000 </r>
       <r>  -12.0343    1.0000 </r>
       <r>  -11.4953    1.0000 </r>
       <r>   -7.4207    1.0000 </r>
       <r>   -7.1858    1.0000 </r>
       <r>   -5.4644    1.0000 </r>
       <r>   -5.2868    1.0000 </r>
       <r>   -3.9476    1.0000 </r>
       <r>   -3.7975    1.0000 </r>
       <r>   -1.0532    0.0000 </r>
       <r>   -1.0312    0.0000 </r>
       <r>    0.3747    0.0000 </r>
       <r>    0.5151    0.0000 </r>
       <r>    1.3624    0.0000 </r>
       <r>    1.6295    0.0000 </r>
      </set>
      <set comment="kpoint 45">
       <r>  -15.0427    1.0000 </r>
       <r>  -13.7056    1.0000 </r>
       <r>  -12.4814    1.0000 </r>
       <r>  -10.9093    1.0000 </r>
       <r>   -7.6555    1.0000 </r>
       <r>   -7.0620    1.0000 </r>
       <r>   -5.5104    1.0000 </r>
       <r>   -5.2090    1.0000 </r>
       <r>   -4.1020    1.0000 </r>
       <r>   -3.6427    1.0000 </r>
       <r>   -0.9585    0.0000 </r>
       <r>   -0.7701    0.0000 </r>
       <r>    0.0510    0.0000 </r>
       <r>    0.4755    0.0000 </r>
       <r>    1.4817    0.0000 </r>
       <r>    2.0392    0.0000 </r>
      </set>
      <set comment="kpoint 46">
       <r>  -15.4644    1.0000 </r>
       <r>  -13.4611    1.0000 </r>
       <r>  -12.6881    1.0000 </r>
       <r>  -10.2894    1.0000 </r>
       <r>   -7.8435    1.0000 </r>
       <r>   -7.0741    1.0000 </r>
       <r>   -5.4790    1.0000 </r>
       <r>   -5.2322    1.0000 </r>
       <r>   -4.1949    1.0000 </r>
       <r>   -3.4645    1.0000 </r>
       <r>   -0.6946    0.0000 </r>
       <r>   -0.5415    0.0000 </r>
       <r>   -0.0428    0.0000 </r>
       <r>    0.2453    0.0000 </r>
       <r>    1.8505    0.0000 </r>
       <r>    2.4644    0.0000 </r>
      </set>
      <set comment="kpoint 47">
       <r>  -15.8464    1.0000 </r>
       <r>  -13.6366    1.0000 </r>
       <r>  -12.4560    1.0000 </r>
       <r>   -9.6580    1.0000 </r>
       <r>   -7.9387    1.0000 </r>
       <r>   -7.1729    1.0000 </r>
       <r>   -5.4580    1.0000 </r>
       <r>   -5.3493    1.0000 </r>
       <r>   -4.1527    1.0000 </r>
       <r>   -3.2676    1.0000 </r>
       <r>   -0.6267    0.0000 </r>
       <r>   -0.3707    0.0000 </r>
       <r>    0.0809    0.0000 </r>
       <r>    0.3723    0.0000 </r>
       <r>    2.2358    0.0000 </r>
       <r>    2.8486    0.0000 </r>
      </set>
      <set comment="kpoint 48">
       <r>  -16.1837    1.0000 </r>
       <r>  -13.9368    1.0000 </r>
       <r>  -12.1133    1.0000 </r>
       <r>   -9.0608    1.0000 </r>
       <r>   -7.9010    1.0000 </r>
       <r>   -7.2649    1.0000 </r>
       <r>   -5.5163    1.0000 </r>
       <r>   -5.4982    1.0000 </r>
       <r>   -3.9850    1.0000 </r>
       <r>   -3.0889    1.0000 </r>
       <r>   -0.6933    0.0000 </r>
       <r>   -0.3481    0.0000 </r>
       <r>    0.3470    0.0000 </r>
       <r>    0.9610    0.0000 </r>
       <r>    2.5474    0.0000 </r>
       <r>    3.1241    0.0000 </r>
      </set>
      <set comment="kpoint 49">
       <r>  -16.4733    1.0000 </r>
       <r>  -14.2195    1.0000 </r>
       <r>  -11.8318    1.0000 </r>
       <r>   -8.6005    1.0000 </r>
       <r>   -7.7037    1.0000 </r>
       <r>   -7.2400    1.0000 </r>
       <r>   -5.6924    1.0000 </r>
       <r>   -5.5383    1.0000 </r>
       <r>   -3.7910    1.0000 </r>
       <r>   -2.9598    1.0000 </r>
       <r>   -0.6149    0.0000 </r>
       <r>   -0.4847    0.0000 </r>
       <r>    0.8767    0.0000 </r>
       <r>    1.5751    0.0000 </r>
       <r>    2.7038    0.0000 </r>
       <r>    3.1268    0.0000 </r>
      </set>
      <set comment="kpoint 50">
       <r>  -16.7127    1.0000 </r>
       <r>  -14.4588    1.0000 </r>
       <r>  -11.6451    1.0000 </r>
       <r>   -8.3932    1.0000 </r>
       <r>   -7.3542    1.0000 </r>
       <r>   -7.0357    1.0000 </r>
       <r>   -5.8472    1.0000 </r>
       <r>   -5.4720    1.0000 </r>
       <r>   -3.6505    1.0000 </r>
       <r>   -2.8879    1.0000 </r>
       <r>   -0.6068    0.0000 </r>
       <r>   -0.3685    0.0000 </r>
       <r>    1.4437    0.0000 </r>
       <r>    2.0239    0.0000 </r>
       <r>    2.4069    0.0000 </r>
       <r>    2.6771    0.0000 </r>
      </set>
      <set comment="kpoint 51">
       <r>  -16.9005    1.0000 </r>
       <r>  -14.6478    1.0000 </r>
       <r>  -11.5415    1.0000 </r>
       <r>   -8.3710    1.0000 </r>
       <r>   -6.9143    1.0000 </r>
       <r>   -6.8174    1.0000 </r>
       <r>   -5.9470    1.0000 </r>
       <r>   -5.1905    1.0000 </r>
       <r>   -3.5812    1.0000 </r>
       <r>   -2.8616    1.0000 </r>
       <r>   -0.7020    0.0000 </r>
       <r>    0.0121    0.0000 </r>
       <r>    1.2315    0.0000 </r>
       <r>    1.7908    0.0000 </r>
       <r>    2.1808    0.0000 </r>
       <r>    2.5642    0.0000 </r>
      </set>
      <set comment="kpoint 52">
       <r>  -17.0356    1.0000 </r>
       <r>  -14.7838    1.0000 </r>
       <r>  -11.4928    1.0000 </r>
       <r>   -8.4051    1.0000 </r>
       <r>   -6.7180    1.0000 </r>
       <r>   -6.5427    1.0000 </r>
       <r>   -5.9062    1.0000 </r>
       <r>   -4.7216    1.0000 </r>
       <r>   -3.5624    1.0000 </r>
       <r>   -2.8626    1.0000 </r>
       <r>   -0.7707    0.0000 </r>
       <r>    0.3489    0.0000 </r>
       <r>    0.4422    0.0000 </r>
       <r>    1.1095    0.0000 </r>
       <r>    2.4520    0.0000 </r>
       <r>    2.5365    0.0000 </r>
      </set>
      <set comment="kpoint 53">
       <r>  -17.1173    1.0000 </r>
       <r>  -14.8653    1.0000 </r>
       <r>  -11.4731    1.0000 </r>
       <r>   -8.4373    1.0000 </r>
       <r>   -6.6925    1.0000 </r>
       <r>   -6.4197    1.0000 </r>
       <r>   -5.6651    1.0000 </r>
       <r>   -4.2646    1.0000 </r>
       <r>   -3.5689    1.0000 </r>
       <r>   -2.8739    1.0000 </r>
       <r>   -0.8135    0.0000 </r>
       <r>   -0.3038    0.0000 </r>
       <r>    0.4678    0.0000 </r>
       <r>    0.8487    0.0000 </r>
       <r>    2.3847    0.0000 </r>
       <r>    2.4456    0.0000 </r>
      </set>
      <set comment="kpoint 54">
       <r>  -17.0399    1.0000 </r>
       <r>  -15.0404    1.0000 </r>
       <r>  -11.4552    1.0000 </r>
       <r>   -8.8740    1.0000 </r>
       <r>   -6.4710    1.0000 </r>
       <r>   -6.0128    1.0000 </r>
       <r>   -5.4387    1.0000 </r>
       <r>   -4.1463    1.0000 </r>
       <r>   -3.3225    1.0000 </r>
       <r>   -3.2438    1.0000 </r>
       <r>   -0.4986    0.0000 </r>
       <r>   -0.4101    0.0000 </r>
       <r>    0.0310    0.0000 </r>
       <r>    0.9681    0.0000 </r>
       <r>    2.5619    0.0000 </r>
       <r>    2.6162    0.0000 </r>
      </set>
      <set comment="kpoint 55">
       <r>  -17.0144    1.0000 </r>
       <r>  -15.0118    1.0000 </r>
       <r>  -11.4527    1.0000 </r>
       <r>   -8.8588    1.0000 </r>
       <r>   -6.4668    1.0000 </r>
       <r>   -6.1210    1.0000 </r>
       <r>   -5.4873    1.0000 </r>
       <r>   -4.3670    1.0000 </r>
       <r>   -3.3083    1.0000 </r>
       <r>   -3.2625    1.0000 </r>
       <r>   -0.4456    0.0000 </r>
       <r>   -0.2209    0.0000 </r>
       <r>    0.2651    0.0000 </r>
       <r>    0.8770    0.0000 </r>
       <r>    2.5890    0.0000 </r>
       <r>    2.6303    0.0000 </r>
      </set>
      <set comment="kpoint 56">
       <r>  -16.9354    1.0000 </r>
[...]
       <r>    3.3144    0.0000 </r>
       <r>    3.4302    0.0000 </r>
      </set>
      <set comment="kpoint 153">
       <r>  -15.3300    1.0000 </r>
       <r>  -15.1180    1.0000 </r>
       <r>  -10.9198    1.0000 </r>
       <r>  -10.5825    1.0000 </r>
       <r>   -7.9329    1.0000 </r>
       <r>   -7.7808    1.0000 </r>
       <r>   -5.2826    1.0000 </r>
       <r>   -5.0172    1.0000 </r>
       <r>   -3.8384    1.0000 </r>
       <r>   -3.7629    1.0000 </r>
       <r>    0.3145    0.0000 </r>
       <r>    0.6475    0.0000 </r>
       <r>    1.0960    0.0000 </r>
       <r>    1.4422    0.0000 </r>
       <r>    3.3020    0.0000 </r>
       <r>    3.3816    0.0000 </r>
      </set>
      <set comment="kpoint 154">
       <r>  -15.6042    1.0000 </r>
       <r>  -15.3806    1.0000 </r>
       <r>  -10.7639    1.0000 </r>
       <r>  -10.4285    1.0000 </r>
       <r>   -7.6158    1.0000 </r>
       <r>   -7.4410    1.0000 </r>
       <r>   -5.1500    1.0000 </r>
       <r>   -4.8570    1.0000 </r>
       <r>   -3.7299    1.0000 </r>
       <r>   -3.7223    1.0000 </r>
       <r>    0.3225    0.0000 </r>
       <r>    0.5749    0.0000 </r>
       <r>    1.2042    0.0000 </r>
       <r>    1.5706    0.0000 </r>
       <r>    3.0473    0.0000 </r>
       <r>    3.3061    0.0000 </r>
      </set>
      <set comment="kpoint 155">
       <r>  -15.8347    1.0000 </r>
       <r>  -15.6023    1.0000 </r>
       <r>  -10.7225    1.0000 </r>
       <r>  -10.3967    1.0000 </r>
       <r>   -7.1020    1.0000 </r>
       <r>   -6.9009    1.0000 </r>
       <r>   -5.1599    1.0000 </r>
       <r>   -4.8451    1.0000 </r>
       <r>   -3.6259    1.0000 </r>
       <r>   -3.5108    1.0000 </r>
       <r>    0.4271    0.0000 </r>
       <r>    0.5672    0.0000 </r>
       <r>    1.2171    0.0000 </r>
       <r>    1.5908    0.0000 </r>
       <r>    2.4522    0.0000 </r>
       <r>    2.7178    0.0000 </r>
      </set>
      <set comment="kpoint 156">
       <r>  -16.0175    1.0000 </r>
       <r>  -15.7777    1.0000 </r>
       <r>  -10.7431    1.0000 </r>
       <r>  -10.4257    1.0000 </r>
       <r>   -6.4662    1.0000 </r>
       <r>   -6.2448    1.0000 </r>
       <r>   -5.2249    1.0000 </r>
       <r>   -4.8983    1.0000 </r>
       <r>   -3.5499    1.0000 </r>
       <r>   -3.3208    1.0000 </r>
       <r>    0.5799    0.0000 </r>
       <r>    0.5903    0.0000 </r>
       <r>    1.1439    0.0000 </r>
       <r>    1.4578    0.0000 </r>
       <r>    1.8312    0.0000 </r>
       <r>    1.9554    0.0000 </r>
      </set>
      <set comment="kpoint 157">
       <r>  -16.1502    1.0000 </r>
       <r>  -15.9038    1.0000 </r>
       <r>  -10.7820    1.0000 </r>
       <r>  -10.4694    1.0000 </r>
       <r>   -5.7906    1.0000 </r>
       <r>   -5.5684    1.0000 </r>
       <r>   -5.2851    1.0000 </r>
       <r>   -4.9585    1.0000 </r>
       <r>   -3.5662    1.0000 </r>
       <r>   -3.2303    1.0000 </r>
       <r>    0.3976    0.0000 </r>
       <r>    0.4619    0.0000 </r>
       <r>    1.1174    0.0000 </r>
       <r>    1.1964    0.0000 </r>
       <r>    1.5209    0.0000 </r>
       <r>    1.6286    0.0000 </r>
      </set>
      <set comment="kpoint 158">
       <r>  -16.2314    1.0000 </r>
       <r>  -15.9790    1.0000 </r>
       <r>  -10.8137    1.0000 </r>
       <r>  -10.5026    1.0000 </r>
       <r>   -5.3544    1.0000 </r>
       <r>   -5.1838    1.0000 </r>
       <r>   -5.0002    1.0000 </r>
       <r>   -4.9576    1.0000 </r>
       <r>   -3.6908    1.0000 </r>
       <r>   -3.2616    1.0000 </r>
       <r>   -0.0194    0.0000 </r>
       <r>    0.0465    0.0000 </r>
       <r>    1.1924    0.0000 </r>
       <r>    1.2339    0.0000 </r>
       <r>    1.4775    0.0000 </r>
       <r>    1.5590    0.0000 </r>
      </set>
     </set>
    </set>
   </array>
  </eigenvalues>
  <separator name="orbital magnetization" >
   <v name="MAGDIPOLOUT">      0.00000000      0.00000000      0.00000000</v>
  </separator>
  <dos>
   <i name="efermi">     -2.17600031 </i>
   <total>
    <array>
     <dimension dim="1">gridpoints</dimension>
     <dimension dim="2">spin</dimension>
     <field>energy</field>
     <field>total</field>
     <field>integrated</field>
     <set>
      <set comment="spin 1">
       <r>   -18.2754     0.0000     0.0000 </r>
       <r>   -18.1988     0.0000     0.0000 </r>
       <r>   -18.1222     0.0000     0.0000 </r>
       <r>   -18.0456     0.0000     0.0000 </r>
       <r>   -17.9689     0.0000     0.0000 </r>
       <r>   -17.8923     0.0000     0.0000 </r>
       <r>   -17.8157     0.0000     0.0000 </r>
       <r>   -17.7391     0.0000     0.0000 </r>
       <r>   -17.6625     0.0000     0.0000 </r>
       <r>   -17.5859     0.0000     0.0000 </r>
       <r>   -17.5092     0.0000     0.0000 </r>
       <r>   -17.4326     0.0000     0.0000 </r>
       <r>   -17.3560     0.0000     0.0000 </r>
       <r>   -17.2794     0.0000     0.0000 </r>
       <r>   -17.2028     0.3036     0.0233 </r>
       <r>   -17.1261     0.7688     0.0822 </r>
       <r>   -17.0495     0.7770     0.1417 </r>
       <r>   -16.9729     0.9721     0.2162 </r>
       <r>   -16.8963     0.8880     0.2842 </r>
       <r>   -16.8197     0.5641     0.3274 </r>
       <r>   -16.7431     1.1256     0.4137 </r>
       <r>   -16.6664     0.8698     0.4803 </r>
       <r>   -16.5898     0.8848     0.5481 </r>
       <r>   -16.5132     0.5804     0.5926 </r>
       <r>   -16.4366     1.4554     0.7041 </r>
       <r>   -16.3600     0.6155     0.7513 </r>
       <r>   -16.2833     0.3717     0.7797 </r>
       <r>   -16.2067     1.6930     0.9095 </r>
       <r>   -16.1301     0.6306     0.9578 </r>
       <r>   -16.0535     0.8755     1.0248 </r>
       <r>   -15.9769     0.8100     1.0869 </r>
       <r>   -15.9002     1.0593     1.1681 </r>
       <r>   -15.8236     1.1775     1.2583 </r>
       <r>   -15.7470     0.9535     1.3313 </r>
       <r>   -15.6704     0.6093     1.3780 </r>
       <r>   -15.5938     1.1489     1.4661 </r>
       <r>   -15.5172     1.0025     1.5429 </r>
       <r>   -15.4405     1.3175     1.6438 </r>
       <r>   -15.3639     0.9471     1.7164 </r>
       <r>   -15.2873     0.9469     1.7889 </r>
       <r>   -15.2107     1.2707     1.8863 </r>
       <r>   -15.1341     0.4230     1.9187 </r>
       <r>   -15.0574     2.0045     2.0723 </r>
       <r>   -14.9808     1.4428     2.1828 </r>
       <r>   -14.9042     0.8194     2.2456 </r>
       <r>   -14.8276     1.5750     2.3663 </r>
       <r>   -14.7510     1.9994     2.5195 </r>
       <r>   -14.6744     1.0501     2.5999 </r>
       <r>   -14.5977     1.7931     2.7373 </r>
       <r>   -14.5211     1.8378     2.8781 </r>
       <r>   -14.4445     0.9557     2.9514 </r>
       <r>   -14.3679     0.8823     3.0190 </r>
       <r>   -14.2913     1.5032     3.1341 </r>
       <r>   -14.2146     0.8793     3.2015 </r>
       <r>   -14.1380     1.2800     3.2996 </r>
       <r>   -14.0614     2.4301     3.4858 </r>
       <r>   -13.9848     1.3603     3.5900 </r>
       <r>   -13.9082     0.5170     3.6296 </r>
       <r>   -13.8316     0.6363     3.6784 </r>
       <r>   -13.7549     1.0816     3.7612 </r>
       <r>   -13.6783     0.6095     3.8079 </r>
       <r>   -13.6017     1.0760     3.8904 </r>
       <r>   -13.5251     0.1050     3.8984 </r>
       <r>   -13.4485     0.4231     3.9308 </r>
       <r>   -13.3718     0.4016     3.9616 </r>
       <r>   -13.2952     0.0359     3.9644 </r>
       <r>   -13.2186     0.2978     3.9872 </r>
       <r>   -13.1420     0.1379     3.9977 </r>
       <r>   -13.0654     0.0296     4.0000 </r>
       <r>   -12.9888     0.0634     4.0049 </r>
       <r>   -12.9121     0.1039     4.0128 </r>
       <r>   -12.8355     0.3255     4.0378 </r>
       <r>   -12.7589     0.0045     4.0381 </r>
       <r>   -12.6823     0.3042     4.0614 </r>
       <r>   -12.6057     0.4016     4.0922 </r>
       <r>   -12.5290     0.1999     4.1075 </r>
       <r>   -12.4524     1.2728     4.2050 </r>
       <r>   -12.3758     0.4810     4.2419 </r>
       <r>   -12.2992     0.3753     4.2706 </r>
       <r>   -12.2226     1.1028     4.3551 </r>
       <r>   -12.1460     0.4108     4.3866 </r>
       <r>   -12.0693     1.9843     4.5386 </r>
       <r>   -11.9927     1.9527     4.6882 </r>
       <r>   -11.9161     0.7506     4.7457 </r>
       <r>   -11.8395     0.9485     4.8184 </r>
       <r>   -11.7629     1.0431     4.8983 </r>
       <r>   -11.6862     1.4025     5.0058 </r>
       <r>   -11.6096     0.9494     5.0785 </r>
       <r>   -11.5330     1.7590     5.2133 </r>
       <r>   -11.4564     4.2432     5.5384 </r>
       <r>   -11.3798     2.3258     5.7166 </r>
       <r>   -11.3032     1.0341     5.7958 </r>
       <r>   -11.2265     1.6413     5.9216 </r>
       <r>   -11.1499     1.0263     6.0002 </r>
       <r>   -11.0733     0.4865     6.0375 </r>
       <r>   -10.9967     1.9652     6.1881 </r>
       <r>   -10.9201     0.4458     6.2222 </r>
       <r>   -10.8434     1.0767     6.3047 </r>
       <r>   -10.7668     1.3995     6.4119 </r>
       <r>   -10.6902     0.9167     6.4822 </r>
       <r>   -10.6136     0.1596     6.4944 </r>
       <r>   -10.5370     0.8497     6.5595 </r>
       <r>   -10.4604     0.7222     6.6148 </r>
       <r>   -10.3837     1.3506     6.7183 </r>
       <r>   -10.3071     0.3531     6.7454 </r>
       <r>   -10.2305     0.7567     6.8033 </r>
       <r>   -10.1539     0.5730     6.8473 </r>
       <r>   -10.0773     0.9024     6.9164 </r>
       <r>   -10.0006     1.1272     7.0028 </r>
       <r>    -9.9240     0.1446     7.0138 </r>
       <r>    -9.8474     0.2459     7.0327 </r>
       <r>    -9.7708     0.2902     7.0549 </r>
       <r>    -9.6942     0.9438     7.1272 </r>
       <r>    -9.6176     1.2004     7.2192 </r>
       <r>    -9.5409     0.6360     7.2679 </r>
       <r>    -9.4643     0.1908     7.2825 </r>
       <r>    -9.3877     0.0000     7.2825 </r>
       <r>    -9.3111     0.5654     7.3259 </r>
       <r>    -9.2345     1.1643     7.4151 </r>
       <r>    -9.1578     0.4249     7.4476 </r>
       <r>    -9.0812     0.0408     7.4507 </r>
       <r>    -9.0046     0.2907     7.4730 </r>
       <r>    -8.9280     0.3067     7.4965 </r>
       <r>    -8.8514     0.8449     7.5612 </r>
       <r>    -8.7747     1.1260     7.6475 </r>
       <r>    -8.6981     0.0428     7.6508 </r>
       <r>    -8.6215     0.0214     7.6524 </r>
       <r>    -8.5449     0.3100     7.6762 </r>
       <r>    -8.4683     0.0156     7.6774 </r>
       <r>    -8.3917     0.8672     7.7438 </r>
       <r>    -8.3150     0.8218     7.8068 </r>
       <r>    -8.2384     0.1187     7.8159 </r>
       <r>    -8.1618     0.6503     7.8657 </r>
       <r>    -8.0852     1.5280     7.9828 </r>
       <r>    -8.0086     2.7300     8.1920 </r>
       <r>    -7.9319     1.6313     8.3169 </r>
       <r>    -7.8553     1.6590     8.4441 </r>
       <r>    -7.7787     2.7201     8.6525 </r>
       <r>    -7.7021     2.3474     8.8323 </r>
       <r>    -7.6255     1.6404     8.9580 </r>
       <r>    -7.5489     1.6830     9.0869 </r>
       <r>    -7.4722     2.0993     9.2478 </r>
       <r>    -7.3956     2.1212     9.4103 </r>
       <r>    -7.3190     2.2304     9.5812 </r>
       <r>    -7.2424     3.6506     9.8609 </r>
       <r>    -7.1658     3.1886    10.1052 </r>
       <r>    -7.0891     3.1571    10.3471 </r>
       <r>    -7.0125     3.1423    10.5879 </r>
       <r>    -6.9359     0.8396    10.6522 </r>
       <r>    -6.8593     1.5884    10.7739 </r>
       <r>    -6.7827     1.2660    10.8709 </r>
       <r>    -6.7061     1.5550    10.9900 </r>
       <r>    -6.6294     2.5220    11.1833 </r>
       <r>    -6.5528     1.0029    11.2601 </r>
       <r>    -6.4762     1.2229    11.3538 </r>
       <r>    -6.3996     2.4815    11.5439 </r>
       <r>    -6.3230     0.7589    11.6021 </r>
       <r>    -6.2463     1.2996    11.7016 </r>
       <r>    -6.1697     2.1283    11.8647 </r>
       <r>    -6.0931     2.2204    12.0348 </r>
       <r>    -6.0165     1.3291    12.1367 </r>
       <r>    -5.9399     2.1010    12.2977 </r>
       <r>    -5.8633     1.1384    12.3849 </r>
       <r>    -5.7866     2.1929    12.5529 </r>
       <r>    -5.7100     2.1934    12.7209 </r>
       <r>    -5.6334     3.5166    12.9904 </r>
       <r>    -5.5568     3.6748    13.2719 </r>
       <r>    -5.4802     3.8493    13.5669 </r>
       <r>    -5.4035     3.5699    13.8404 </r>
       <r>    -5.3269     3.7650    14.1289 </r>
       <r>    -5.2503     2.6802    14.3342 </r>
       <r>    -5.1737     3.5203    14.6039 </r>
       <r>    -5.0971     2.8003    14.8185 </r>
       <r>    -5.0205     1.9148    14.9652 </r>
       <r>    -4.9438     2.5780    15.1627 </r>
       <r>    -4.8672     1.5666    15.2827 </r>
       <r>    -4.7906     1.6367    15.4081 </r>
       <r>    -4.7140     0.9784    15.4831 </r>
       <r>    -4.6374     0.7589    15.5413 </r>
       <r>    -4.5607     1.8678    15.6844 </r>
       <r>    -4.4841     1.5352    15.8020 </r>
       <r>    -4.4075     0.5309    15.8427 </r>
       <r>    -4.3309     0.8041    15.9043 </r>
       <r>    -4.2543     1.2688    16.0015 </r>
       <r>    -4.1777     2.1974    16.1699 </r>
       <r>    -4.1010     2.7575    16.3811 </r>
       <r>    -4.0244     2.1691    16.5473 </r>
       <r>    -3.9478     3.2748    16.7982 </r>
       <r>    -3.8712     1.9313    16.9462 </r>
       <r>    -3.7946     4.2251    17.2699 </r>
       <r>    -3.7179     4.7064    17.6305 </r>
       <r>    -3.6413     2.9219    17.8544 </r>
       <r>    -3.5647     3.6413    18.1334 </r>
       <r>    -3.4881     2.6513    18.3365 </r>
       <r>    -3.4115     3.8233    18.6294 </r>
       <r>    -3.3349     2.9369    18.8545 </r>
       <r>    -3.2582     3.8814    19.1519 </r>
       <r>    -3.1816     2.3282    19.3302 </r>
       <r>    -3.1050     0.8935    19.3987 </r>
       <r>    -3.0284     0.6285    19.4468 </r>
       <r>    -2.9518     0.9617    19.5205 </r>
       <r>    -2.8751     1.9446    19.6695 </r>
       <r>    -2.7985     1.5204    19.7860 </r>
       <r>    -2.7219     0.2695    19.8067 </r>
       <r>    -2.6453     0.1799    19.8204 </r>
       <r>    -2.5687     0.4093    19.8518 </r>
       <r>    -2.4921     0.4962    19.8898 </r>
       <r>    -2.4154     0.8579    19.9556 </r>
       <r>    -2.3388     0.1523    19.9672 </r>
       <r>    -2.2622     0.4032    19.9981 </r>
       <r>    -2.1856     0.0246    20.0000 </r>
       <r>    -2.1090     0.0000    20.0000 </r>
       <r>    -2.0323     0.0000    20.0000 </r>
       <r>    -1.9557     0.0000    20.0000 </r>
       <r>    -1.8791     0.0000    20.0000 </r>
       <r>    -1.8025     0.0000    20.0000 </r>
       <r>    -1.7259     0.0000    20.0000 </r>
       <r>    -1.6492     0.0000    20.0000 </r>
       <r>    -1.5726     0.0000    20.0000 </r>
       <r>    -1.4960     0.0000    20.0000 </r>
       <r>    -1.4194     0.0001    20.0000 </r>
       <r>    -1.3428     0.1950    20.0149 </r>
       <r>    -1.2662     0.1707    20.0280 </r>
       <r>    -1.1895     0.1473    20.0393 </r>
       <r>    -1.1129     1.1385    20.1265 </r>
       <r>    -1.0363     1.0771    20.2091 </r>
       <r>    -0.9597     2.4177    20.3943 </r>
       <r>    -0.8831     1.1616    20.4833 </r>
       <r>    -0.8064     2.2780    20.6579 </r>
       <r>    -0.7298     1.6786    20.7865 </r>
       <r>    -0.6532     2.0975    20.9472 </r>
       <r>    -0.5766     1.5357    21.0648 </r>
       <r>    -0.5000     2.0585    21.2226 </r>
       <r>    -0.4234     2.4183    21.4078 </r>
       <r>    -0.3467     3.3819    21.6670 </r>
       <r>    -0.2701     2.4620    21.8556 </r>
       <r>    -0.1935     2.2070    22.0247 </r>
       <r>    -0.1169     2.0452    22.1814 </r>
       <r>    -0.0403     3.0559    22.4155 </r>
       <r>     0.0364     4.0260    22.7240 </r>
       <r>     0.1130     3.2765    22.9750 </r>
       <r>     0.1896     2.6783    23.1802 </r>
       <r>     0.2662     2.9282    23.4046 </r>
       <r>     0.3428     3.4740    23.6708 </r>
       <r>     0.4194     5.0558    24.0581 </r>
       <r>     0.4961     5.8652    24.5075 </r>
       <r>     0.5727     3.0147    24.7385 </r>
       <r>     0.6493     4.4076    25.0762 </r>
       <r>     0.7259     2.7632    25.2879 </r>
       <r>     0.8025     3.3806    25.5469 </r>
       <r>     0.8792     4.3383    25.8793 </r>
       <r>     0.9558     3.0430    26.1125 </r>
       <r>     1.0324     3.0304    26.3446 </r>
       <r>     1.1090     2.3964    26.5283 </r>
       <r>     1.1856     2.3885    26.7113 </r>
       <r>     1.2622     4.4367    27.0512 </r>
       <r>     1.3389     1.6435    27.1771 </r>
       <r>     1.4155     2.1905    27.3449 </r>
       <r>     1.4921     2.8064    27.5600 </r>
       <r>     1.5687     2.4370    27.7467 </r>
       <r>     1.6453     1.9597    27.8968 </r>
       <r>     1.7220     2.0833    28.0564 </r>
       <r>     1.7986     1.5956    28.1787 </r>
       <r>     1.8752     3.5155    28.4480 </r>
       <r>     1.9518     2.7541    28.6591 </r>
       <r>     2.0284     1.6724    28.7872 </r>
       <r>     2.1050     1.4411    28.8976 </r>
       <r>     2.1817     2.8578    29.1166 </r>
       <r>     2.2583     2.4075    29.3010 </r>
       <r>     2.3349     3.1321    29.5410 </r>
       <r>     2.4115     2.6075    29.7408 </r>
       <r>     2.4881     3.0120    29.9716 </r>
       <r>     2.5648     2.4915    30.1625 </r>
       <r>     2.6414     3.2923    30.4147 </r>
       <r>     2.7180     3.5428    30.6861 </r>
       <r>     2.7946     2.5243    30.8795 </r>
       <r>     2.8712     1.7866    31.0164 </r>
       <r>     2.9478     2.2669    31.1901 </r>
       <r>     3.0245     1.3810    31.2959 </r>
       <r>     3.1011     2.1268    31.4589 </r>
       <r>     3.1777     1.1673    31.5483 </r>
       <r>     3.2543     1.4699    31.6609 </r>
       <r>     3.3309     2.0053    31.8146 </r>
       <r>     3.4076     1.0939    31.8984 </r>
       <r>     3.4842     0.6717    31.9498 </r>
       <r>     3.5608     0.3226    31.9746 </r>
       <r>     3.6374     0.1703    31.9876 </r>
       <r>     3.7140     0.1617    32.0000 </r>
       <r>     3.7906     0.0000    32.0000 </r>
       <r>     3.8673     0.0000    32.0000 </r>
       <r>     3.9439     0.0000    32.0000 </r>
       <r>     4.0205     0.0000    32.0000 </r>
       <r>     4.0971     0.0000    32.0000 </r>
       <r>     4.1737     0.0000    32.0000 </r>
       <r>     4.2504     0.0000    32.0000 </r>
       <r>     4.3270     0.0000    32.0000 </r>
       <r>     4.4036     0.0000    32.0000 </r>
       <r>     4.4802     0.0000    32.0000 </r>
       <r>     4.5568     0.0000    32.0000 </r>
       <r>     4.6334     0.0000    32.0000 </r>
       <r>     4.7101     0.0000    32.0000 </r>
      </set>
     </set>
    </array>
   </total>
  </dos>
 </calculation>
 <structure name="finalpos" >
  <crystal>
   <varray name="basis" >
    <v>       3.29716300       0.01648600       0.00000000 </v>
    <v>       0.02311700       4.62329300      -0.00005300 </v>
    <v>       0.00000000       0.00000000      20.02439000 </v>
   </varray>
   <i name="volume">    305.23917600 </i>
   <varray name="rec_basis" >
    <v>       0.30329862      -0.00151653       0.00000000 </v>
    <v>      -0.00108152       0.21630145       0.00000000 </v>
    <v>      -0.00000000       0.00000057       0.04993910 </v>
   </varray>
  </crystal>
  <varray name="positions" >
   <v>       0.49809037       0.91087175       0.55251342 </v>
   <v>       0.50190963       0.08912825       0.44748658 </v>
   <v>      -0.00190962       0.41086742       0.44748658 </v>
   <v>       0.00190962       0.58913258       0.55251342 </v>
  </varray>
 </structure>
</modeling>
