<?xml version="1.0" encoding="ISO-8859-1"?>
<modeling>
 <generator>
  <i name="program" type="string">vasp </i>
  <i name="version" type="string">5.4.1  </i>
  <i name="subversion" type="string">24Jun15 (build Nov 20 2020 10:29:34) complex                          parallel </i>
  <i name="platform" type="string">IFC91_ompi </i>
  <i name="date" type="string">2021 09 09 </i>
  <i name="time" type="string">15:16:23 </i>
 </generator>
 <incar>
  <i type="string" name="PREC">a</i>
  <i type="string" name="ALGO"> Normal</i>
  <i type="int" name="ISPIN">     1</i>
  <i type="int" name="ICHARG">     2</i>
  <i type="int" name="NELM">   250</i>
  <i type="int" name="NELMDL">    -5</i>
  <i type="int" name="NELMIN">     6</i>
  <i type="int" name="IBRION">     2</i>
  <i name="EDIFF">      0.00001000</i>
  <i name="EDIFFG">     -0.01000000</i>
  <i type="int" name="NSW">   200</i>
  <i type="int" name="ISIF">     2</i>
  <i name="ENCUT">    520.00000000</i>
  <i name="POTIM">      0.30000000</i>
  <i type="logical" name="LREAL"> F  </i>
  <i type="int" name="ISMEAR">     0</i>
  <i name="SIGMA">      0.02000000</i>
  <i type="logical" name="LWAVE"> F  </i>
  <i type="logical" name="LCHARG"> F  </i>
  <i type="logical" name="LAECHG"> F  </i>
  <v type="int" name="KPOINT_BSE">    -1     0     0     0</v>
  <i type="int" name="NELM">   250</i>
 </incar>
 <kpoints>
  <generation param="Gamma">
   <v type="int" name="divisions">      20       16        1 </v>
   <v name="usershift">      0.00000000       0.00000000       0.00000000 </v>
   <v name="genvec1">      0.05000000       0.00000000       0.00000000 </v>
   <v name="genvec2">      0.00000000       0.06250000       0.00000000 </v>
   <v name="genvec3">      0.00000000       0.00000000       1.00000000 </v>
   <v name="shift">      0.00000000       0.00000000       0.00000000 </v>
  </generation>
  <varray name="kpointlist" >
   <v>       0.00000000       0.00000000       0.00000000 </v>
   <v>       0.05000000       0.00000000       0.00000000 </v>
   <v>       0.10000000       0.00000000       0.00000000 </v>
   <v>       0.15000000       0.00000000       0.00000000 </v>
   <v>       0.20000000       0.00000000       0.00000000 </v>
   <v>       0.25000000       0.00000000       0.00000000 </v>
   <v>       0.30000000       0.00000000       0.00000000 </v>
   <v>       0.35000000       0.00000000       0.00000000 </v>
   <v>       0.40000000       0.00000000       0.00000000 </v>
   <v>       0.45000000       0.00000000       0.00000000 </v>
   <v>       0.50000000       0.00000000       0.00000000 </v>
   <v>       0.00000000       0.06250000       0.00000000 </v>
   <v>       0.05000000       0.06250000       0.00000000 </v>
   <v>       0.10000000       0.06250000       0.00000000 </v>
   <v>       0.15000000       0.06250000       0.00000000 </v>
   <v>       0.20000000       0.06250000       0.00000000 </v>
   <v>       0.25000000       0.06250000       0.00000000 </v>
   <v>       0.30000000       0.06250000       0.00000000 </v>
   <v>       0.35000000       0.06250000       0.00000000 </v>
   <v>       0.40000000       0.06250000       0.00000000 </v>
   <v>       0.45000000       0.06250000       0.00000000 </v>
   <v>       0.50000000       0.06250000       0.00000000 </v>
   <v>      -0.45000000       0.06250000       0.00000000 </v>
   <v>      -0.40000000       0.06250000       0.00000000 </v>
   <v>      -0.35000000       0.06250000       0.00000000 </v>
   <v>      -0.30000000       0.06250000       0.00000000 </v>
   <v>      -0.25000000       0.06250000       0.00000000 </v>
   <v>      -0.20000000       0.06250000       0.00000000 </v>
   <v>      -0.15000000       0.06250000       0.00000000 </v>
   <v>      -0.10000000       0.06250000       0.00000000 </v>
   <v>      -0.05000000       0.06250000       0.00000000 </v>
   <v>       0.00000000       0.12500000       0.00000000 </v>
   <v>       0.05000000       0.12500000       0.00000000 </v>
   <v>       0.10000000       0.12500000       0.00000000 </v>
   <v>       0.15000000       0.12500000       0.00000000 </v>
   <v>       0.20000000       0.12500000       0.00000000 </v>
   <v>       0.25000000       0.12500000       0.00000000 </v>
   <v>       0.30000000       0.12500000       0.00000000 </v>
   <v>       0.35000000       0.12500000       0.00000000 </v>
   <v>       0.40000000       0.12500000       0.00000000 </v>
   <v>       0.45000000       0.12500000       0.00000000 </v>
   <v>       0.50000000       0.12500000       0.00000000 </v>
   <v>      -0.45000000       0.12500000       0.00000000 </v>
   <v>      -0.40000000       0.12500000       0.00000000 </v>
   <v>      -0.35000000       0.12500000       0.00000000 </v>
   <v>      -0.30000000       0.12500000       0.00000000 </v>
   <v>      -0.25000000       0.12500000       0.00000000 </v>
   <v>      -0.20000000       0.12500000       0.00000000 </v>
   <v>      -0.15000000       0.12500000       0.00000000 </v>
   <v>      -0.10000000       0.12500000       0.00000000 </v>
   <v>      -0.05000000       0.12500000       0.00000000 </v>
   <v>       0.00000000       0.18750000       0.00000000 </v>
   <v>       0.05000000       0.18750000       0.00000000 </v>
   <v>       0.10000000       0.18750000       0.00000000 </v>
   <v>       0.15000000       0.18750000       0.00000000 </v>
   <v>       0.20000000       0.18750000       0.00000000 </v>
   <v>       0.25000000       0.18750000       0.00000000 </v>
   <v>       0.30000000       0.18750000       0.00000000 </v>
   <v>       0.35000000       0.18750000       0.00000000 </v>
   <v>       0.40000000       0.18750000       0.00000000 </v>
   <v>       0.45000000       0.18750000       0.00000000 </v>
   <v>       0.50000000       0.18750000       0.00000000 </v>
   <v>      -0.45000000       0.18750000       0.00000000 </v>
   <v>      -0.40000000       0.18750000       0.00000000 </v>
   <v>      -0.35000000       0.18750000       0.00000000 </v>
   <v>      -0.30000000       0.18750000       0.00000000 </v>
   <v>      -0.25000000       0.18750000       0.00000000 </v>
   <v>      -0.20000000       0.18750000       0.00000000 </v>
   <v>      -0.15000000       0.18750000       0.00000000 </v>
   <v>      -0.10000000       0.18750000       0.00000000 </v>
   <v>      -0.05000000       0.18750000       0.00000000 </v>
   <v>       0.00000000       0.25000000       0.00000000 </v>
   <v>       0.05000000       0.25000000       0.00000000 </v>
   <v>       0.10000000       0.25000000       0.00000000 </v>
   <v>       0.15000000       0.25000000       0.00000000 </v>
   <v>       0.20000000       0.25000000       0.00000000 </v>
   <v>       0.25000000       0.25000000       0.00000000 </v>
   <v>       0.30000000       0.25000000       0.00000000 </v>
   <v>       0.35000000       0.25000000       0.00000000 </v>
   <v>       0.40000000       0.25000000       0.00000000 </v>
   <v>       0.45000000       0.25000000       0.00000000 </v>
   <v>       0.50000000       0.25000000       0.00000000 </v>
   <v>      -0.45000000       0.25000000       0.00000000 </v>
   <v>      -0.40000000       0.25000000       0.00000000 </v>
   <v>      -0.35000000       0.25000000       0.00000000 </v>
   <v>      -0.30000000       0.25000000       0.00000000 </v>
   <v>      -0.25000000       0.25000000       0.00000000 </v>
   <v>      -0.20000000       0.25000000       0.00000000 </v>
   <v>      -0.15000000       0.25000000       0.00000000 </v>
   <v>      -0.10000000       0.25000000       0.00000000 </v>
   <v>      -0.05000000       0.25000000       0.00000000 </v>
   <v>       0.00000000       0.31250000       0.00000000 </v>
   <v>       0.05000000       0.31250000       0.00000000 </v>
   <v>       0.10000000       0.31250000       0.00000000 </v>
   <v>       0.15000000       0.31250000       0.00000000 </v>
   <v>       0.20000000       0.31250000       0.00000000 </v>
   <v>       0.25000000       0.31250000       0.00000000 </v>
   <v>       0.30000000       0.31250000       0.00000000 </v>
   <v>       0.35000000       0.31250000       0.00000000 </v>
   <v>       0.40000000       0.31250000       0.00000000 </v>
   <v>       0.45000000       0.31250000       0.00000000 </v>
   <v>       0.50000000       0.31250000       0.00000000 </v>
   <v>      -0.45000000       0.31250000       0.00000000 </v>
   <v>      -0.40000000       0.31250000       0.00000000 </v>
   <v>      -0.35000000       0.31250000       0.00000000 </v>
   <v>      -0.30000000       0.31250000       0.00000000 </v>
   <v>      -0.25000000       0.31250000       0.00000000 </v>
   <v>      -0.20000000       0.31250000       0.00000000 </v>
   <v>      -0.15000000       0.31250000       0.00000000 </v>
   <v>      -0.10000000       0.31250000       0.00000000 </v>
   <v>      -0.05000000       0.31250000       0.00000000 </v>
   <v>       0.00000000       0.37500000       0.00000000 </v>
   <v>       0.05000000       0.37500000       0.00000000 </v>
   <v>       0.10000000       0.37500000       0.00000000 </v>
   <v>       0.15000000       0.37500000       0.00000000 </v>
   <v>       0.20000000       0.37500000       0.00000000 </v>
   <v>       0.25000000       0.37500000       0.00000000 </v>
   <v>       0.30000000       0.37500000       0.00000000 </v>
   <v>       0.35000000       0.37500000       0.00000000 </v>
   <v>       0.40000000       0.37500000       0.00000000 </v>
   <v>       0.45000000       0.37500000       0.00000000 </v>
   <v>       0.50000000       0.37500000       0.00000000 </v>
   <v>      -0.45000000       0.37500000       0.00000000 </v>
   <v>      -0.40000000       0.37500000       0.00000000 </v>
   <v>      -0.35000000       0.37500000       0.00000000 </v>
   <v>      -0.30000000       0.37500000       0.00000000 </v>
   <v>      -0.25000000       0.37500000       0.00000000 </v>
   <v>      -0.20000000       0.37500000       0.00000000 </v>
   <v>      -0.15000000       0.37500000       0.00000000 </v>
   <v>      -0.10000000       0.37500000       0.00000000 </v>
   <v>      -0.05000000       0.37500000       0.00000000 </v>
   <v>       0.00000000       0.43750000       0.00000000 </v>
   <v>       0.05000000       0.43750000       0.00000000 </v>
   <v>       0.10000000       0.43750000       0.00000000 </v>
   <v>       0.15000000       0.43750000       0.00000000 </v>
   <v>       0.20000000       0.43750000       0.00000000 </v>
   <v>       0.25000000       0.43750000       0.00000000 </v>
   <v>       0.30000000       0.43750000       0.00000000 </v>
   <v>       0.35000000       0.43750000       0.00000000 </v>
   <v>       0.40000000       0.43750000       0.00000000 </v>
   <v>       0.45000000       0.43750000       0.00000000 </v>
   <v>       0.50000000       0.43750000       0.00000000 </v>
   <v>      -0.45000000       0.43750000       0.00000000 </v>
   <v>      -0.40000000       0.43750000       0.00000000 </v>
   <v>      -0.35000000       0.43750000       0.00000000 </v>
   <v>      -0.30000000       0.43750000       0.00000000 </v>
   <v>      -0.25000000       0.43750000       0.00000000 </v>
   <v>      -0.20000000       0.43750000       0.00000000 </v>
   <v>      -0.15000000       0.43750000       0.00000000 </v>
   <v>      -0.10000000       0.43750000       0.00000000 </v>
   <v>      -0.05000000       0.43750000       0.00000000 </v>
   <v>       0.00000000       0.50000000       0.00000000 </v>
   <v>       0.05000000       0.50000000       0.00000000 </v>
   <v>       0.10000000       0.50000000       0.00000000 </v>
   <v>       0.15000000       0.50000000       0.00000000 </v>
   <v>       0.20000000       0.50000000       0.00000000 </v>
   <v>       0.25000000       0.50000000       0.00000000 </v>
   <v>       0.30000000       0.50000000       0.00000000 </v>
   <v>       0.35000000       0.50000000       0.00000000 </v>
   <v>       0.40000000       0.50000000       0.00000000 </v>
   <v>       0.45000000       0.50000000       0.00000000 </v>
   <v>       0.50000000       0.50000000       0.00000000 </v>
  </varray>
  <varray name="weights" >
   <v>       0.00312500 </v>
   <v>       0.00625000 </v>
   <v>       0.00625000 </v>
   <v>       0.00625000 </v>
   <v>       0.00625000 </v>
   <v>       0.00625000 </v>
   <v>       0.00625000 </v>
   <v>       0.00625000 </v>
   <v>       0.00625000 </v>
   <v>       0.00625000 </v>
   <v>       0.00312500 </v>
   <v>       0.00625000 </v>
   <v>       0.00625000 </v>
   <v>       0.00625000 </v>
   <v>       0.00625000 </v>
   <v>       0.00625000 </v>
   <v>       0.00625000 </v>
   <v>       0.00625000 </v>
   <v>       0.00625000 </v>
   <v>       0.00625000 </v>
   <v>       0.00625000 </v>
   <v>       0.00625000 </v>
   <v>       0.00625000 </v>
   <v>       0.00625000 </v>
   <v>       0.00625000 </v>
   <v>       0.00625000 </v>
   <v>       0.00625000 </v>
   <v>       0.00625000 </v>
   <v>       0.00625000 </v>
   <v>       0.00625000 </v>
   <v>       0.00625000 </v>
   <v>       0.00625000 </v>
   <v>       0.00625000 </v>
   <v>       0.00625000 </v>
   <v>       0.00625000 </v>
   <v>       0.00625000 </v>
   <v>       0.00625000 </v>
   <v>       0.00625000 </v>
   <v>       0.00625000 </v>
   <v>       0.00625000 </v>
   <v>       0.00625000 </v>
   <v>       0.00625000 </v>
   <v>       0.00625000 </v>
   <v>       0.00625000 </v>
   <v>       0.00625000 </v>
   <v>       0.00625000 </v>
   <v>       0.00625000 </v>
   <v>       0.00625000 </v>
   <v>       0.00625000 </v>
   <v>       0.00625000 </v>
   <v>       0.00625000 </v>
   <v>       0.00625000 </v>
   <v>       0.00625000 </v>
   <v>       0.00625000 </v>
   <v>       0.00625000 </v>
   <v>       0.00625000 </v>
   <v>       0.00625000 </v>
   <v>       0.00625000 </v>
   <v>       0.00625000 </v>
   <v>       0.00625000 </v>
   <v>       0.00625000 </v>
   <v>       0.00625000 </v>
   <v>       0.00625000 </v>
   <v>       0.00625000 </v>
   <v>       0.00625000 </v>
   <v>       0.00625000 </v>
   <v>       0.00625000 </v>
   <v>       0.00625000 </v>
   <v>       0.00625000 </v>
   <v>       0.00625000 </v>
   <v>       0.00625000 </v>
   <v>       0.00625000 </v>
   <v>       0.00625000 </v>
   <v>       0.00625000 </v>
   <v>       0.00625000 </v>
   <v>       0.00625000 </v>
   <v>       0.00625000 </v>
   <v>       0.00625000 </v>
   <v>       0.00625000 </v>
   <v>       0.00625000 </v>
   <v>       0.00625000 </v>
   <v>       0.00625000 </v>
   <v>       0.00625000 </v>
   <v>       0.00625000 </v>
   <v>       0.00625000 </v>
   <v>       0.00625000 </v>
   <v>       0.00625000 </v>
   <v>       0.00625000 </v>
   <v>       0.00625000 </v>
   <v>       0.00625000 </v>
   <v>       0.00625000 </v>
   <v>       0.00625000 </v>
   <v>       0.00625000 </v>
   <v>       0.00625000 </v>
   <v>       0.00625000 </v>
   <v>       0.00625000 </v>
   <v>       0.00625000 </v>
   <v>       0.00625000 </v>
   <v>       0.00625000 </v>
   <v>       0.00625000 </v>
   <v>       0.00625000 </v>
   <v>       0.00625000 </v>
   <v>       0.00625000 </v>
   <v>       0.00625000 </v>
   <v>       0.00625000 </v>
   <v>       0.00625000 </v>
   <v>       0.00625000 </v>
   <v>       0.00625000 </v>
   <v>       0.00625000 </v>
   <v>       0.00625000 </v>
   <v>       0.00625000 </v>
   <v>       0.00625000 </v>
   <v>       0.00625000 </v>
   <v>       0.00625000 </v>
   <v>       0.00625000 </v>
   <v>       0.00625000 </v>
   <v>       0.00625000 </v>
   <v>       0.00625000 </v>
   <v>       0.00625000 </v>
   <v>       0.00625000 </v>
   <v>       0.00625000 </v>
   <v>       0.00625000 </v>
   <v>       0.00625000 </v>
   <v>       0.00625000 </v>
   <v>       0.00625000 </v>
   <v>       0.00625000 </v>
   <v>       0.00625000 </v>
   <v>       0.00625000 </v>
   <v>       0.00625000 </v>
   <v>       0.00625000 </v>
   <v>       0.00625000 </v>
   <v>       0.00625000 </v>
   <v>       0.00625000 </v>
   <v>       0.00625000 </v>
   <v>       0.00625000 </v>
   <v>       0.00625000 </v>
   <v>       0.00625000 </v>
   <v>       0.00625000 </v>
   <v>       0.00625000 </v>
   <v>       0.00625000 </v>
   <v>       0.00625000 </v>
   <v>       0.00625000 </v>
   <v>       0.00625000 </v>
   <v>       0.00625000 </v>
   <v>       0.00625000 </v>
   <v>       0.00625000 </v>
   <v>       0.00625000 </v>
   <v>       0.00625000 </v>
   <v>       0.00625000 </v>
   <v>       0.00625000 </v>
   <v>       0.00625000 </v>
   <v>       0.00312500 </v>
   <v>       0.00625000 </v>
   <v>       0.00625000 </v>
   <v>       0.00625000 </v>
   <v>       0.00625000 </v>
   <v>       0.00625000 </v>
   <v>       0.00625000 </v>
   <v>       0.00625000 </v>
   <v>       0.00625000 </v>
   <v>       0.00625000 </v>
   <v>       0.00312500 </v>
  </varray>
 </kpoints>
 <parameters>
  <separator name="general" >
   <i type="string" name="SYSTEM">unknown system</i>
   <i type="logical" name="LCOMPAT"> F  </i>
  </separator>
  <separator name="electronic" >
   <i type="string" name="PREC">a</i>
   <i name="ENMAX">    520.00000000</i>
   <i name="ENAUG">    342.92400000</i>
   <i name="EDIFF">      0.00001000</i>
   <i type="int" name="IALGO">    38</i>
   <i type="int" name="IWAVPR">    11</i>
   <i type="int" name="NBANDS">    16</i>
   <i name="NELECT">     20.00000000</i>
   <i type="int" name="TURBO">     0</i>
   <i type="int" name="IRESTART">     0</i>
   <i type="int" name="NREBOOT">     0</i>
   <i type="int" name="NMIN">     0</i>
   <i name="EREF">      0.00000000</i>
   <separator name="electronic smearing" >
    <i type="int" name="ISMEAR">     0</i>
    <i name="SIGMA">      0.02000000</i>
    <i name="KSPACING">      0.50000000</i>
    <i type="logical" name="KGAMMA"> T  </i>
   </separator>
   <separator name="electronic projectors" >
    <i type="logical" name="LREAL"> F  </i>
    <v name="ROPT">      0.00000000</v>
    <i type="int" name="LMAXPAW">  -100</i>
    <i type="int" name="LMAXMIX">     2</i>
    <i type="logical" name="NLSPLINE"> F  </i>
   </separator>
   <separator name="electronic startup" >
    <i type="int" name="ISTART">     0</i>
    <i type="int" name="ICHARG">     2</i>
    <i type="int" name="INIWAV">     1</i>
   </separator>
   <separator name="electronic spin" >
    <i type="int" name="ISPIN">     1</i>
    <i type="logical" name="LNONCOLLINEAR"> F  </i>
    <v name="MAGMOM">      1.00000000      1.00000000      1.00000000      1.00000000</v>
    <i name="NUPDOWN">     -1.00000000</i>
    <i type="logical" name="LSORBIT"> F  </i>
    <v name="SAXIS">      0.00000000      0.00000000      1.00000000</v>
    <i type="logical" name="LSPIRAL"> F  </i>
    <v name="QSPIRAL">      0.00000000      0.00000000      0.00000000</v>
    <i type="logical" name="LZEROZ"> F  </i>
   </separator>
   <separator name="electronic exchange-correlation" >
    <i type="logical" name="LASPH"> F  </i>
    <i type="logical" name="LMETAGGA"> F  </i>
   </separator>
   <separator name="electronic convergence" >
    <i type="int" name="NELM">   250</i>
    <i type="int" name="NELMDL">    -5</i>
    <i type="int" name="NELMIN">     6</i>
    <i name="ENINI">    520.00000000</i>
    <separator name="electronic convergence detail" >
     <i type="logical" name="LDIAG"> T  </i>
     <i type="logical" name="LSUBROT"> F  </i>
     <i name="WEIMIN">      0.00100000</i>
     <i name="EBREAK">      0.00000016</i>
     <i name="DEPER">      0.30000000</i>
     <i type="int" name="NRMM">     4</i>
     <i name="TIME">      0.40000000</i>
    </separator>
   </separator>
   <separator name="electronic mixer" >
    <i name="AMIX">      0.40000000</i>
    <i name="BMIX">      1.00000000</i>
    <i name="AMIN">      0.10000000</i>
    <i name="AMIX_MAG">      1.60000000</i>
    <i name="BMIX_MAG">      1.00000000</i>
    <separator name="electronic mixer details" >
     <i type="int" name="IMIX">     4</i>
     <i type="logical" name="MIXFIRST"> F  </i>
     <i type="int" name="MAXMIX">   -45</i>
     <i name="WC">    100.00000000</i>
     <i type="int" name="INIMIX">     1</i>
     <i type="int" name="MIXPRE">     1</i>
     <i type="int" name="MREMOVE">     5</i>
    </separator>
   </separator>
   <separator name="electronic dipolcorrection" >
    <i type="logical" name="LDIPOL"> F  </i>
    <i type="logical" name="LMONO"> F  </i>
    <i type="int" name="IDIPOL">     0</i>
    <i name="EPSILON">      1.00000000</i>
    <v name="DIPOL">   -100.00000000   -100.00000000   -100.00000000</v>
    <i name="EFIELD">      0.00000000</i>
   </separator>
  </separator>
  <separator name="grids" >
   <i type="int" name="NGX">    28</i>
   <i type="int" name="NGY">    36</i>
   <i type="int" name="NGZ">   150</i>
   <i type="int" name="NGXF">    56</i>
   <i type="int" name="NGYF">    72</i>
   <i type="int" name="NGZF">   300</i>
   <i type="logical" name="ADDGRID"> F  </i>
  </separator>
  <separator name="ionic" >
   <i type="int" name="NSW">   200</i>
   <i type="int" name="IBRION">     2</i>
   <i type="int" name="ISIF">     2</i>
   <i name="PSTRESS">      0.00000000</i>
   <i name="EDIFFG">     -0.01000000</i>
   <i type="int" name="NFREE">     1</i>
   <i name="POTIM">      0.30000000</i>
   <i name="SMASS">     -3.00000000</i>
   <i name="SCALEE">      1.00000000</i>
  </separator>
  <separator name="ionic md" >
   <i name="TEBEG">      0.00010000</i>
   <i name="TEEND">      0.00010000</i>
   <i type="int" name="NBLOCK">     1</i>
   <i type="int" name="KBLOCK">   200</i>
   <i type="int" name="NPACO">   256</i>
   <i name="APACO">     16.00000000</i>
  </separator>
  <separator name="symmetry" >
   <i type="int" name="ISYM">     2</i>
   <i name="SYMPREC">      0.00001000</i>
  </separator>
  <separator name="dos" >
   <i type="logical" name="LORBIT"> F  </i>
   <v name="RWIGS">     -1.00000000</v>
   <i type="int" name="NEDOS">   301</i>
   <i name="EMIN">     10.00000000</i>
   <i name="EMAX">    -10.00000000</i>
   <i name="EFERMI">      0.00000000</i>
  </separator>
  <separator name="writing" >
   <i type="int" name="NWRITE">     2</i>
   <i type="logical" name="LWAVE"> F  </i>
   <i type="logical" name="LCHARG"> F  </i>
   <i type="logical" name="LPARD"> F  </i>
   <i type="logical" name="LVTOT"> F  </i>
   <i type="logical" name="LVHAR"> F  </i>
   <i type="logical" name="LELF"> F  </i>
   <i type="logical" name="LOPTICS"> F  </i>
   <v name="STM">      0.00000000      0.00000000      0.00000000      0.00000000      0.00000000      0.00000000      0.00000000</v>
  </separator>
  <separator name="performance" >
   <i type="int" name="NPAR">     4</i>
   <i type="int" name="NSIM">     4</i>
   <i type="int" name="NBLK">    -1</i>
   <i type="logical" name="LPLANE"> T  </i>
   <i type="logical" name="LSCALAPACK"> T  </i>
   <i type="logical" name="LSCAAWARE"> F  </i>
   <i type="logical" name="LSCALU"> F  </i>
   <i type="logical" name="LASYNC"> F  </i>
   <i type="logical" name="LORBITALREAL"> F  </i>
  </separator>
  <separator name="miscellaneous" >
   <i type="int" name="IDIOT">     3</i>
   <i type="logical" name="LMUSIC"> F  </i>
   <v name="POMASS">     30.97400000</v>
   <v name="DARWINR">      0.00000000</v>
   <v name="DARWINV">      1.00000000</v>
   <i type="logical" name="LCORR"> T  </i>
  </separator>
  <i type="logical" name="GGA_COMPAT"> T  </i>
  <i type="logical" name="LBERRY"> F  </i>
  <i type="int" name="ICORELEVEL">     0</i>
  <i type="logical" name="LDAU"> F  </i>
  <i type="int" name="I_CONSTRAINED_M">     0</i>
  <separator name="electronic exchange-correlation" >
   <i type="string" name="GGA">--</i>
   <i type="int" name="VOSKOWN">     0</i>
   <i type="logical" name="LHFCALC"> F  </i>
   <i type="string" name="PRECFOCK"></i>
   <i type="logical" name="LSYMGRAD"> F  </i>
   <i type="logical" name="LHFONE"> F  </i>
   <i type="logical" name="LRHFCALC"> F  </i>
   <i type="logical" name="LTHOMAS"> F  </i>
   <i type="logical" name="LMODELHF"> F  </i>
   <i name="ENCUT4O">     -1.00000000</i>
   <i type="int" name="EXXOEP">     0</i>
   <i type="int" name="FOURORBIT">     0</i>
   <i name="AEXX">      0.00000000</i>
   <i name="HFALPHA">      0.00000000</i>
   <i name="MCALPHA">      0.00000000</i>
   <i name="ALDAX">      1.00000000</i>
   <i name="AGGAX">      1.00000000</i>
   <i name="ALDAC">      1.00000000</i>
   <i name="AGGAC">      1.00000000</i>
   <i type="int" name="NKREDX">     1</i>
   <i type="int" name="NKREDY">     1</i>
   <i type="int" name="NKREDZ">     1</i>
   <i type="logical" name="SHIFTRED"> F  </i>
   <i type="logical" name="ODDONLY"> F  </i>
   <i type="logical" name="EVENONLY"> F  </i>
   <i type="int" name="LMAXFOCK">     0</i>
   <i type="int" name="NMAXFOCKAE">     0</i>
   <i type="logical" name="LFOCKAEDFT"> F  </i>
   <i name="HFSCREEN">      0.00000000</i>
   <i name="HFSCREENC">      0.00000000</i>
   <i type="int" name="NBANDSGWLOW">     0</i>
  </separator>
  <separator name="vdW DFT" >
   <i type="logical" name="LUSE_VDW"> F  </i>
   <i name="Zab_VDW">     -0.84910000</i>
   <i name="PARAM1">      0.12340000</i>
   <i name="PARAM2">      1.00000000</i>
   <i name="PARAM3">      0.00000000</i>
  </separator>
  <separator name="model GW" >
   <i type="int" name="MODEL_GW">     0</i>
   <i name="MODEL_EPS0">     50.15842134</i>
   <i name="MODEL_ALPHA">      1.00000000</i>
  </separator>
  <separator name="linear response parameters" >
   <i type="logical" name="LEPSILON"> F  </i>
   <i type="logical" name="LRPA"> F  </i>
   <i type="logical" name="LNABLA"> F  </i>
   <i type="logical" name="LVEL"> F  </i>
   <i type="int" name="KINTER">     0</i>
   <i name="CSHIFT">      0.10000000</i>
   <i name="OMEGAMAX">     -1.00000000</i>
   <i name="DEG_THRESHOLD">      0.00200000</i>
  </separator>
  <separator name="orbital magnetization" >
   <i type="logical" name="NUCIND"> F  </i>
   <v name="MAGPOS">      0.00000000      0.00000000      0.00000000</v>
   <i type="logical" name="LNICSALL"> T  </i>
   <i type="logical" name="ORBITALMAG"> F  </i>
   <i type="logical" name="LMAGBLOCH"> F  </i>
   <i type="logical" name="LCHIMAG"> F  </i>
   <i type="logical" name="LGAUGE"> T  </i>
   <i type="int" name="MAGATOM">     0</i>
   <v name="MAGDIPOL">      0.00000000      0.00000000      0.00000000</v>
   <v name="AVECCONST">      0.00000000      0.00000000      0.00000000</v>
  </separator>
  <separator name="response functions" >
   <i type="logical" name="LADDER"> F  </i>
   <i type="logical" name="LFXC"> F  </i>
   <i type="logical" name="LHARTREE"> T  </i>
   <i type="int" name="IBSE">     0</i>
   <v type="int" name="KPOINT">    -1     0     0     0</v>
   <i type="logical" name="LTCTE"> F  </i>
   <i type="logical" name="LTETE"> F  </i>
   <i type="logical" name="LTRIPLET"> F  </i>
   <i type="logical" name="LFXCEPS"> F  </i>
   <i type="logical" name="LFXHEG"> F  </i>
   <i type="int" name="NATURALO">     0</i>
   <i type="logical" name="L2ORDER"> F  </i>
   <i type="logical" name="LUSEW"> F  </i>
   <i name="ENCUTGW">     -2.00000000</i>
   <i name="ENCUTGWSOFT">     -2.00000000</i>
   <i name="ENCUTLF">     -1.00000000</i>
   <i type="int" name="LMAXMP2">    -1</i>
   <i name="SCISSOR">      0.00000000</i>
   <i type="int" name="NOMEGA">     0</i>
   <i type="int" name="NOMEGAR">     0</i>
   <i type="int" name="NBANDSGW">    -1</i>
   <i type="int" name="NBANDSO">    -1</i>
   <i type="int" name="NBANDSV">    -1</i>
   <i type="int" name="NELM">   250</i>
   <i type="int" name="NELMHF">     1</i>
   <i type="int" name="DIM">     3</i>
   <i type="int" name="ANTIRES">     0</i>
   <i name="OMEGAMAX">    -30.00000000</i>
   <i name="OMEGAMIN">    -30.00000000</i>
   <i name="OMEGATL">   -200.00000000</i>
   <i type="int" name="OMEGAGRID">     0</i>
   <i name="CSHIFT">     -0.10000000</i>
   <i type="logical" name="SELFENERGY"> F  </i>
   <i type="logical" name="LSPECTRAL"> F  </i>
   <i type="logical" name="LSPECTRALGW"> F  </i>
   <i type="logical" name="LSINGLES"> F  </i>
   <i type="logical" name="LFERMIGW"> F  </i>
   <i type="logical" name="ODDONLYGW"> F  </i>
   <i type="logical" name="EVENONLYGW"> F  </i>
   <i type="int" name="NKREDLFX">     1</i>
   <i type="int" name="NKREDLFY">     1</i>
   <i type="int" name="NKREDLFZ">     1</i>
   <i type="int" name="MAXMEM">  1800</i>
   <i type="int" name="TELESCOPE">     0</i>
   <i type="int" name="TAUPAR">     1</i>
   <i type="int" name="OMEGAPAR">    -1</i>
   <i name="LAMBDA">      1.00000000</i>
  </separator>
  <separator name="External order field" >
   <i name="OFIELD_KAPPA">      0.00000000</i>
   <v name="OFIELD_K">      0.00000000      0.00000000      0.00000000</v>
   <i name="OFIELD_Q6_NEAR">      0.00000000</i>
   <i name="OFIELD_Q6_FAR">      0.00000000</i>
   <i name="OFIELD_A">      0.00000000</i>
  </separator>
 </parameters>
 <atominfo>
  <atoms>       4 </atoms>
  <types>       1 </types>
  <array name="atoms" >
   <dimension dim="1">ion</dimension>
   <field type="string">element</field>
   <field type="int">atomtype</field>
   <set>
    <rc><c>P </c><c>   1</c></rc>
    <rc><c>P </c><c>   1</c></rc>
    <rc><c>P </c><c>   1</c></rc>
    <rc><c>P </c><c>   1</c></rc>
   </set>
  </array>
  <array name="atomtypes" >
   <dimension dim="1">type</dimension>
   <field type="int">atomspertype</field>
   <field type="string">element</field>
   <field>mass</field>
   <field>valence</field>
   <field type="string">pseudopotential</field>
   <set>
    <rc><c>   4</c><c>P </c><c>     30.97400000</c><c>      5.00000000</c><c>  PAW_PBE P 06Sep2000                   </c></rc>
   </set>
  </array>
 </atominfo>
 <structure name="initialpos" >
  <crystal>
   <varray name="basis" >
    <v>       3.61190600       0.00000000       0.00000000 </v>
    <v>       0.00000000       4.62335100      -0.00005300 </v>
    <v>       0.00000000       0.00000000      20.02439000 </v>
   </varray>
   <i name="volume">    334.38947561 </i>
   <varray name="rec_basis" >
    <v>       0.27686213       0.00000000       0.00000000 </v>
    <v>       0.00000000       0.21629333       0.00000000 </v>
    <v>       0.00000000       0.00000057       0.04993910 </v>
   </varray>
  </crystal>
  <varray name="positions" >
   <v>       0.50000000       0.91077300       0.55252100 </v>
   <v>       0.50000000       0.08922700       0.44747900 </v>
   <v>       0.00000000       0.41076900       0.44747900 </v>
   <v>       0.00000000       0.58923100       0.55252100 </v>
  </varray>
 </structure>
 <calculation>
  <scstep>
   <time name="dav">    1.55    1.55</time>
   <time name="total">    1.58    1.58</time>
   <energy>
    <i name="alphaZ">      4.79728328 </i>
    <i name="ewald">   1655.31180823 </i>
    <i name="hartreedc">  -2250.59012456 </i>
    <i name="XCdc">     12.18095546 </i>
    <i name="pawpsdc">    559.04011960 </i>
    <i name="pawaedc">   -526.39432044 </i>
    <i name="eentropy">     -0.00049965 </i>
    <i name="bandstr">    -29.30999331 </i>
    <i name="atom">    704.16778566 </i>
    <i name="e_fr_energy">    129.20301428 </i>
    <i name="e_wo_entrp">    129.20351393 </i>
    <i name="e_0_energy">    129.20326410 </i>
   </energy>
  </scstep>
  <scstep>
   <time name="dav">    2.09    2.09</time>
   <time name="total">    2.09    2.09</time>
   <energy>
    <i name="e_fr_energy">     -5.41300151 </i>
    <i name="e_wo_entrp">     -5.41300151 </i>
    <i name="e_0_energy">     -5.41300151 </i>
   </energy>
  </scstep>
  <scstep>
   <time name="dav">    1.92    1.93</time>
   <time name="total">    1.93    1.93</time>
   <energy>
    <i name="e_fr_energy">    -20.92277920 </i>
    <i name="e_wo_entrp">    -20.92277920 </i>
    <i name="e_0_energy">    -20.92277920 </i>
   </energy>
  </scstep>
  <scstep>
   <time name="dav">    1.93    1.93</time>
   <time name="total">    1.93    1.93</time>
   <energy>
    <i name="e_fr_energy">    -21.24731851 </i>
    <i name="e_wo_entrp">    -21.24731851 </i>
    <i name="e_0_energy">    -21.24731851 </i>
   </energy>
  </scstep>
  <scstep>
   <time name="dav">    2.06    2.06</time>
   <time name="total">    2.16    2.16</time>
   <energy>
    <i name="e_fr_energy">    -21.25726644 </i>
    <i name="e_wo_entrp">    -21.25726644 </i>
    <i name="e_0_energy">    -21.25726644 </i>
   </energy>
  </scstep>
  <scstep>
   <time name="dav">    1.89    1.89</time>
   <time name="total">    2.00    2.01</time>
   <energy>
    <i name="e_fr_energy">    -21.15091274 </i>
    <i name="e_wo_entrp">    -21.15091274 </i>
    <i name="e_0_energy">    -21.15091274 </i>
   </energy>
  </scstep>
  <scstep>
   <time name="dav">    1.82    1.82</time>
   <time name="total">    1.93    1.93</time>
   <energy>
    <i name="e_fr_energy">    -21.09756994 </i>
    <i name="e_wo_entrp">    -21.09756994 </i>
    <i name="e_0_energy">    -21.09756994 </i>
   </energy>
  </scstep>
  <scstep>
   <time name="dav">    1.95    1.95</time>
   <time name="total">    2.06    2.06</time>
   <energy>
    <i name="e_fr_energy">    -21.09775718 </i>
    <i name="e_wo_entrp">    -21.09775718 </i>
    <i name="e_0_energy">    -21.09775718 </i>
   </energy>
  </scstep>
  <scstep>
   <time name="dav">    2.17    2.17</time>
   <time name="total">    2.28    2.28</time>
   <energy>
    <i name="e_fr_energy">    -21.09776054 </i>
    <i name="e_wo_entrp">    -21.09776054 </i>
    <i name="e_0_energy">    -21.09776054 </i>
   </energy>
  </scstep>
  <scstep>
   <time name="dav">    1.95    1.95</time>
   <time name="total">    2.06    2.06</time>
   <energy>
    <i name="e_fr_energy">    -21.09770451 </i>
    <i name="e_wo_entrp">    -21.09770451 </i>
    <i name="e_0_energy">    -21.09770451 </i>
   </energy>
  </scstep>
  <scstep>
   <time name="dav">    1.88    1.88</time>
   <time name="total">    1.99    2.00</time>
   <energy>
    <i name="e_fr_energy">    -21.09768001 </i>
    <i name="e_wo_entrp">    -21.09768001 </i>
    <i name="e_0_energy">    -21.09768001 </i>
   </energy>
  </scstep>
  <scstep>
   <time name="dav">    1.71    1.71</time>
   <time name="total">    1.82    1.82</time>
   <energy>
    <i name="e_fr_energy">    -21.09794468 </i>
    <i name="e_wo_entrp">    -21.09794468 </i>
    <i name="e_0_energy">    -21.09794468 </i>
   </energy>
  </scstep>
  <scstep>
   <time name="dav">    1.70    1.70</time>
   <time name="total">    1.82    1.82</time>
   <energy>
    <i name="e_fr_energy">    -21.09800906 </i>
    <i name="e_wo_entrp">    -21.09800906 </i>
    <i name="e_0_energy">    -21.09800906 </i>
   </energy>
  </scstep>
  <scstep>
   <time name="dav">    1.59    1.59</time>
   <time name="total">    1.71    1.71</time>
   <energy>
    <i name="e_fr_energy">    -21.09811884 </i>
    <i name="e_wo_entrp">    -21.09811884 </i>
    <i name="e_0_energy">    -21.09811884 </i>
   </energy>
  </scstep>
  <scstep>
   <time name="dav">    1.61    1.61</time>
   <time name="total">    1.72    1.72</time>
   <energy>
    <i name="e_fr_energy">    -21.09815021 </i>
    <i name="e_wo_entrp">    -21.09815021 </i>
    <i name="e_0_energy">    -21.09815021 </i>
   </energy>
  </scstep>
  <scstep>
   <time name="dav">    1.57    1.57</time>
   <time name="total">    1.68    1.69</time>
   <energy>
    <i name="e_fr_energy">    -21.09817340 </i>
    <i name="e_wo_entrp">    -21.09817340 </i>
    <i name="e_0_energy">    -21.09817340 </i>
   </energy>
  </scstep>
  <scstep>
   <time name="dav">    1.46    1.46</time>
   <time name="total">    1.48    1.48</time>
   <energy>
    <i name="alphaZ">      4.79728328 </i>
    <i name="ewald">   1655.31180823 </i>
    <i name="hartreedc">  -2262.16165728 </i>
    <i name="XCdc">     13.10043035 </i>
    <i name="pawpsdc">   1742.20812820 </i>
    <i name="pawaedc">  -1709.77072503 </i>
    <i name="eentropy">     -0.00000000 </i>
    <i name="bandstr">   -168.75122981 </i>
    <i name="atom">    704.16778566 </i>
    <i name="e_fr_energy">    -21.09817641 </i>
    <i name="e_wo_entrp">    -21.09817641 </i>
    <i name="e_0_energy">    -21.09817641 </i>
   </energy>
  </scstep>
  <structure>
   <crystal>
    <varray name="basis" >
     <v>       3.61190600       0.00000000       0.00000000 </v>
     <v>       0.00000000       4.62335100      -0.00005300 </v>
     <v>       0.00000000       0.00000000      20.02439000 </v>
    </varray>
    <i name="volume">    334.38947561 </i>
    <varray name="rec_basis" >
     <v>       0.27686213       0.00000000       0.00000000 </v>
     <v>       0.00000000       0.21629333       0.00000000 </v>
     <v>       0.00000000       0.00000057       0.04993910 </v>
    </varray>
   </crystal>
   <varray name="positions" >
    <v>       0.50000000       0.91077300       0.55252100 </v>
    <v>       0.50000000       0.08922700       0.44747900 </v>
    <v>       0.00000000       0.41076900       0.44747900 </v>
    <v>       0.00000000       0.58923100       0.55252100 </v>
   </varray>
  </structure>
  <varray name="forces" >
   <v>       0.00000012      -0.19767330      -0.13654648 </v>
   <v>      -0.00000012       0.19767330       0.13654648 </v>
   <v>      -0.00000015      -0.19769859       0.13655256 </v>
   <v>       0.00000015       0.19769859      -0.13655256 </v>
  </varray>
  <varray name="stress" >
   <v>     -34.57382112      -0.00000171       0.00000099 </v>
   <v>      -0.00000170     -10.43199743       0.00037186 </v>
   <v>       0.00000098       0.00037186      -2.81229255 </v>
  </varray>
  <energy>
   <i name="e_fr_energy">    -21.09817641 </i>
   <i name="e_wo_entrp">    -21.09817641 </i>
   <i name="e_0_energy">     -0.00000000 </i>
  </energy>
  <time name="totalsc">   33.09   33.13</time>
 </calculation>
 <calculation>
  <scstep>
   <time name="dav">    1.64    1.64</time>
   <time name="total">    1.76    1.76</time>
   <energy>
    <i name="alphaZ">      4.79728328 </i>
    <i name="ewald">   1659.28205419 </i>
    <i name="hartreedc">  -2265.76058395 </i>
    <i name="XCdc">     13.14568274 </i>
    <i name="pawpsdc">   1741.99056050 </i>
    <i name="pawaedc">  -1709.55323617 </i>
    <i name="eentropy">     -0.00000000 </i>
    <i name="bandstr">   -169.17261593 </i>
    <i name="atom">    704.16778566 </i>
    <i name="e_fr_energy">    -21.10306968 </i>
    <i name="e_wo_entrp">    -21.10306968 </i>
    <i name="e_0_energy">    -21.10306968 </i>
   </energy>
  </scstep>
  <scstep>
   <time name="dav">    1.90    1.90</time>
   <time name="total">    2.02    2.02</time>
   <energy>
    <i name="e_fr_energy">    -21.10363025 </i>
    <i name="e_wo_entrp">    -21.10363025 </i>
    <i name="e_0_energy">    -21.10363025 </i>
   </energy>
  </scstep>
  <scstep>
   <time name="dav">    2.06    2.06</time>
   <time name="total">    2.17    2.17</time>
   <energy>
    <i name="e_fr_energy">    -21.10363817 </i>
    <i name="e_wo_entrp">    -21.10363817 </i>
    <i name="e_0_energy">    -21.10363817 </i>
   </energy>
  </scstep>
  <scstep>
   <time name="dav">    1.53    1.53</time>
   <time name="total">    1.64    1.65</time>
   <energy>
    <i name="e_fr_energy">    -21.10363743 </i>
    <i name="e_wo_entrp">    -21.10363743 </i>
    <i name="e_0_energy">    -21.10363743 </i>
   </energy>
  </scstep>
  <scstep>
   <time name="dav">    1.44    1.44</time>
   <time name="total">    1.55    1.55</time>
   <energy>
    <i name="e_fr_energy">    -21.10363896 </i>
    <i name="e_wo_entrp">    -21.10363896 </i>
    <i name="e_0_energy">    -21.10363896 </i>
   </energy>
  </scstep>
  <scstep>
   <time name="dav">    1.33    1.33</time>
   <time name="total">    1.35    1.35</time>
   <energy>
    <i name="alphaZ">      4.79728328 </i>
    <i name="ewald">   1659.28205419 </i>
    <i name="hartreedc">  -2265.75986246 </i>
    <i name="XCdc">     13.14891192 </i>
    <i name="pawpsdc">   1763.12196510 </i>
    <i name="pawaedc">  -1730.69262226 </i>
    <i name="eentropy">     -0.00000000 </i>
    <i name="bandstr">   -169.16915470 </i>
    <i name="atom">    704.16778566 </i>
    <i name="e_fr_energy">    -21.10363928 </i>
    <i name="e_wo_entrp">    -21.10363928 </i>
    <i name="e_0_energy">    -21.10363928 </i>
   </energy>
  </scstep>
  <structure>
   <crystal>
    <varray name="basis" >
     <v>       3.61190600       0.00000000       0.00000000 </v>
     <v>       0.00000000       4.62335100      -0.00005300 </v>
     <v>       0.00000000       0.00000000      20.02439000 </v>
    </varray>
    <i name="volume">    334.38947561 </i>
    <varray name="rec_basis" >
     <v>       0.27686213       0.00000000       0.00000000 </v>
     <v>       0.00000000       0.21629333       0.00000000 </v>
     <v>       0.00000000       0.00000057       0.04993910 </v>
    </varray>
   </crystal>
   <varray name="positions" >
    <v>       0.50000000       0.90953542       0.55232362 </v>
    <v>       0.50000000       0.09046458       0.44767638 </v>
    <v>      -0.00000000       0.40953126       0.44767639 </v>
    <v>       0.00000000       0.59046874       0.55232361 </v>
   </varray>
  </structure>
  <varray name="forces" >
   <v>       0.00000013      -0.11672244      -0.09790729 </v>
   <v>      -0.00000013       0.11672244       0.09790729 </v>
   <v>       0.00000006      -0.11674452       0.09790928 </v>
   <v>      -0.00000006       0.11674452      -0.09790928 </v>
  </varray>
  <varray name="stress" >
   <v>     -34.35961830      -0.00000070       0.00000000 </v>
   <v>      -0.00000071      -9.09908038       0.00032617 </v>
   <v>      -0.00000005       0.00032616      -2.06710755 </v>
  </varray>
  <energy>
   <i name="e_fr_energy">    -21.10363928 </i>
   <i name="e_wo_entrp">    -21.10363928 </i>
   <i name="e_0_energy">     -0.00000000 </i>
  </energy>
  <time name="totalsc">   11.33   11.35</time>
 </calculation>
 <calculation>
  <scstep>
   <time name="dav">    1.60    1.60</time>
   <time name="total">    1.71    1.71</time>
   <energy>
    <i name="alphaZ">      4.79728328 </i>
    <i name="ewald">   1666.08600763 </i>
    <i name="hartreedc">  -2271.88872955 </i>
    <i name="XCdc">     13.22618894 </i>
    <i name="pawpsdc">   1763.30874941 </i>
    <i name="pawaedc">  -1730.87934445 </i>
    <i name="eentropy">     -0.00000000 </i>
    <i name="bandstr">   -169.92346288 </i>
    <i name="atom">    704.16778566 </i>
    <i name="e_fr_energy">    -21.10552197 </i>
    <i name="e_wo_entrp">    -21.10552197 </i>
    <i name="e_0_energy">    -21.10552197 </i>
   </energy>
  </scstep>
  <scstep>
   <time name="dav">    1.91    1.91</time>
   <time name="total">    2.02    2.02</time>
   <energy>
    <i name="e_fr_energy">    -21.10720545 </i>
    <i name="e_wo_entrp">    -21.10720545 </i>
    <i name="e_0_energy">    -21.10720545 </i>
   </energy>
  </scstep>
  <scstep>
   <time name="dav">    2.05    2.05</time>
   <time name="total">    2.16    2.16</time>
   <energy>
    <i name="e_fr_energy">    -21.10722194 </i>
    <i name="e_wo_entrp">    -21.10722194 </i>
    <i name="e_0_energy">    -21.10722194 </i>
   </energy>
  </scstep>
  <scstep>
   <time name="dav">    1.80    1.80</time>
   <time name="total">    1.91    1.91</time>
   <energy>
    <i name="e_fr_energy">    -21.10721792 </i>
    <i name="e_wo_entrp">    -21.10721792 </i>
    <i name="e_0_energy">    -21.10721792 </i>
   </energy>
  </scstep>
  <scstep>
   <time name="dav">    1.63    1.63</time>
   <time name="total">    1.74    1.74</time>
   <energy>
    <i name="e_fr_energy">    -21.10721750 </i>
    <i name="e_wo_entrp">    -21.10721750 </i>
    <i name="e_0_energy">    -21.10721750 </i>
   </energy>
  </scstep>
  <scstep>
   <time name="dav">    1.36    1.36</time>
   <time name="total">    1.38    1.38</time>
   <energy>
    <i name="alphaZ">      4.79728328 </i>
    <i name="ewald">   1666.08600763 </i>
    <i name="hartreedc">  -2271.86787793 </i>
    <i name="XCdc">     13.23166493 </i>
    <i name="pawpsdc">   1800.55124053 </i>
    <i name="pawaedc">  -1768.13569948 </i>
    <i name="eentropy">     -0.00000000 </i>
    <i name="bandstr">   -169.93762272 </i>
    <i name="atom">    704.16778566 </i>
    <i name="e_fr_energy">    -21.10721811 </i>
    <i name="e_wo_entrp">    -21.10721811 </i>
    <i name="e_0_energy">    -21.10721811 </i>
   </energy>
  </scstep>
  <structure>
   <crystal>
    <varray name="basis" >
     <v>       3.61190600       0.00000000       0.00000000 </v>
     <v>       0.00000000       4.62335100      -0.00005300 </v>
     <v>       0.00000000       0.00000000      20.02439000 </v>
    </varray>
    <i name="volume">    334.38947561 </i>
    <varray name="rec_basis" >
     <v>       0.27686213       0.00000000       0.00000000 </v>
     <v>       0.00000000       0.21629333       0.00000000 </v>
     <v>       0.00000000       0.00000057       0.04993910 </v>
    </varray>
   </crystal>
   <varray name="positions" >
    <v>       0.50000000       0.90741580       0.55198555 </v>
    <v>       0.50000000       0.09258420       0.44801445 </v>
    <v>      -0.00000000       0.40741137       0.44801445 </v>
    <v>       0.00000000       0.59258863       0.55198555 </v>
   </varray>
  </structure>
  <varray name="forces" >
   <v>       0.00000001       0.02464254      -0.03282791 </v>
   <v>      -0.00000001      -0.02464254       0.03282791 </v>
   <v>       0.00000004       0.02462575       0.03282322 </v>
   <v>      -0.00000004      -0.02462575      -0.03282322 </v>
  </varray>
  <varray name="stress" >
   <v>     -33.91423494      -0.00000039      -0.00000056 </v>
   <v>      -0.00000038      -6.80051640       0.00024491 </v>
   <v>      -0.00000051       0.00024489      -0.79168970 </v>
  </varray>
  <energy>
   <i name="e_fr_energy">    -21.10721811 </i>
   <i name="e_wo_entrp">    -21.10721811 </i>
   <i name="e_0_energy">     -0.00000000 </i>
  </energy>
  <time name="totalsc">   11.76   11.77</time>
 </calculation>
 <calculation>
  <scstep>
   <time name="dav">    1.61    1.61</time>
   <time name="total">    1.72    1.72</time>
   <energy>
    <i name="alphaZ">      4.79728328 </i>
    <i name="ewald">   1666.01440345 </i>
    <i name="hartreedc">  -2271.77691440 </i>
    <i name="XCdc">     13.23051719 </i>
    <i name="pawpsdc">   1800.90001142 </i>
    <i name="pawaedc">  -1768.48436334 </i>
    <i name="eentropy">     -0.00000000 </i>
    <i name="bandstr">   -169.95594388 </i>
    <i name="atom">    704.16778566 </i>
    <i name="e_fr_energy">    -21.10722062 </i>
    <i name="e_wo_entrp">    -21.10722062 </i>
    <i name="e_0_energy">    -21.10722062 </i>
   </energy>
  </scstep>
  <scstep>
   <time name="dav">    1.29    1.29</time>
   <time name="total">    1.40    1.40</time>
   <energy>
    <i name="e_fr_energy">    -21.10722264 </i>
    <i name="e_wo_entrp">    -21.10722264 </i>
    <i name="e_0_energy">    -21.10722264 </i>
   </energy>
  </scstep>
  <scstep>
   <time name="dav">    1.31    1.31</time>
   <time name="total">    1.43    1.43</time>
   <energy>
    <i name="e_fr_energy">    -21.10722486 </i>
    <i name="e_wo_entrp">    -21.10722486 </i>
    <i name="e_0_energy">    -21.10722486 </i>
   </energy>
  </scstep>
  <scstep>
   <time name="dav">    1.48    1.48</time>
   <time name="total">    1.59    1.59</time>
   <energy>
    <i name="e_fr_energy">    -21.10722931 </i>
    <i name="e_wo_entrp">    -21.10722931 </i>
    <i name="e_0_energy">    -21.10722931 </i>
   </energy>
  </scstep>
  <scstep>
   <time name="dav">    1.37    1.37</time>
   <time name="total">    1.48    1.49</time>
   <energy>
    <i name="e_fr_energy">    -21.10723159 </i>
    <i name="e_wo_entrp">    -21.10723159 </i>
    <i name="e_0_energy">    -21.10723159 </i>
   </energy>
  </scstep>
  <scstep>
   <time name="dav">    1.53    1.53</time>
   <time name="total">    1.55    1.55</time>
   <energy>
    <i name="alphaZ">      4.79728328 </i>
    <i name="ewald">   1666.01440345 </i>
    <i name="hartreedc">  -2271.72290068 </i>
    <i name="XCdc">     13.22989241 </i>
    <i name="pawpsdc">   1800.76603726 </i>
    <i name="pawaedc">  -1768.35029084 </i>
    <i name="eentropy">     -0.00000000 </i>
    <i name="bandstr">   -170.00944519 </i>
    <i name="atom">    704.16778566 </i>
    <i name="e_fr_energy">    -21.10723464 </i>
    <i name="e_wo_entrp">    -21.10723464 </i>
    <i name="e_0_energy">    -21.10723464 </i>
   </energy>
  </scstep>
  <structure>
   <crystal>
    <varray name="basis" >
     <v>       3.61190600       0.00000000       0.00000000 </v>
     <v>       0.00000000       4.62335100      -0.00005300 </v>
     <v>       0.00000000       0.00000000      20.02439000 </v>
    </varray>
    <i name="volume">    334.38947561 </i>
    <varray name="rec_basis" >
     <v>       0.27686213       0.00000000       0.00000000 </v>
     <v>       0.00000000       0.21629333       0.00000000 </v>
     <v>       0.00000000       0.00000057       0.04993910 </v>
    </varray>
   </crystal>
   <varray name="positions" >
    <v>       0.50000000       0.90743810       0.55198911 </v>
    <v>       0.50000000       0.09256190       0.44801089 </v>
    <v>      -0.00000000       0.40743367       0.44801089 </v>
    <v>       0.00000000       0.59256633       0.55198911 </v>
   </varray>
  </structure>
  <varray name="forces" >
   <v>      -0.00000005       0.02331001      -0.03338784 </v>
   <v>       0.00000005      -0.02331001       0.03338784 </v>
   <v>       0.00000009       0.02329323       0.03338300 </v>
   <v>      -0.00000009      -0.02329323      -0.03338300 </v>
  </varray>
  <varray name="stress" >
   <v>     -33.91719272      -0.00000039      -0.00000045 </v>
   <v>      -0.00000038      -6.80735885       0.00024725 </v>
   <v>      -0.00000040       0.00024718      -0.73192868 </v>
  </varray>
  <energy>
   <i name="e_fr_energy">    -21.10723464 </i>
   <i name="e_wo_entrp">    -21.10723464 </i>
   <i name="e_0_energy">     -0.00000000 </i>
  </energy>
  <time name="totalsc">   10.02   10.04</time>
 </calculation>
 <calculation>
  <scstep>
   <time name="dav">    1.53    1.53</time>
   <time name="total">    1.64    1.64</time>
   <energy>
    <i name="alphaZ">      4.79728328 </i>
    <i name="ewald">   1667.17034031 </i>
    <i name="hartreedc">  -2272.82571063 </i>
    <i name="XCdc">     13.23638912 </i>
    <i name="pawpsdc">   1800.76964513 </i>
    <i name="pawaedc">  -1768.35388934 </i>
    <i name="eentropy">     -0.00000000 </i>
    <i name="bandstr">   -170.06919523 </i>
    <i name="atom">    704.16778566 </i>
    <i name="e_fr_energy">    -21.10735170 </i>
    <i name="e_wo_entrp">    -21.10735170 </i>
    <i name="e_0_energy">    -21.10735170 </i>
   </energy>
  </scstep>
  <scstep>
   <time name="dav">    1.89    1.89</time>
   <time name="total">    2.00    2.00</time>
   <energy>
    <i name="e_fr_energy">    -21.10739826 </i>
    <i name="e_wo_entrp">    -21.10739826 </i>
    <i name="e_0_energy">    -21.10739826 </i>
   </energy>
  </scstep>
  <scstep>
   <time name="dav">    1.45    1.45</time>
   <time name="total">    1.56    1.56</time>
   <energy>
    <i name="e_fr_energy">    -21.10739725 </i>
    <i name="e_wo_entrp">    -21.10739725 </i>
    <i name="e_0_energy">    -21.10739725 </i>
   </energy>
  </scstep>
  <scstep>
   <time name="dav">    1.24    1.24</time>
   <time name="total">    1.35    1.36</time>
   <energy>
    <i name="e_fr_energy">    -21.10739763 </i>
    <i name="e_wo_entrp">    -21.10739763 </i>
    <i name="e_0_energy">    -21.10739763 </i>
   </energy>
  </scstep>
  <scstep>
   <time name="dav">    1.22    1.22</time>
   <time name="total">    1.33    1.33</time>
   <energy>
    <i name="e_fr_energy">    -21.10739770 </i>
    <i name="e_wo_entrp">    -21.10739770 </i>
    <i name="e_0_energy">    -21.10739770 </i>
   </energy>
  </scstep>
  <scstep>
   <time name="dav">    1.21    1.21</time>
   <time name="total">    1.23    1.23</time>
   <energy>
    <i name="alphaZ">      4.79728328 </i>
    <i name="ewald">   1667.17034031 </i>
    <i name="hartreedc">  -2272.83379909 </i>
    <i name="XCdc">     13.23710533 </i>
    <i name="pawpsdc">   1803.75567992 </i>
    <i name="pawaedc">  -1771.34102778 </i>
    <i name="eentropy">     -0.00000000 </i>
    <i name="bandstr">   -170.06076536 </i>
    <i name="atom">    704.16778566 </i>
    <i name="e_fr_energy">    -21.10739775 </i>
    <i name="e_wo_entrp">    -21.10739775 </i>
    <i name="e_0_energy">    -21.10739775 </i>
   </energy>
  </scstep>
  <structure>
   <crystal>
    <varray name="basis" >
     <v>       3.61190600       0.00000000       0.00000000 </v>
     <v>       0.00000000       4.62335100      -0.00005300 </v>
     <v>       0.00000000       0.00000000      20.02439000 </v>
    </varray>
    <i name="volume">    334.38947561 </i>
    <varray name="rec_basis" >
     <v>       0.27686213       0.00000000       0.00000000 </v>
     <v>       0.00000000       0.21629333       0.00000000 </v>
     <v>       0.00000000       0.00000057       0.04993910 </v>
    </varray>
   </crystal>
   <varray name="positions" >
    <v>       0.50000000       0.90758455       0.55191668 </v>
    <v>       0.50000000       0.09241545       0.44808332 </v>
    <v>      -0.00000000       0.40757998       0.44808331 </v>
    <v>       0.00000000       0.59242002       0.55191669 </v>
   </varray>
  </structure>
  <varray name="forces" >
   <v>      -0.00000001       0.00578372      -0.00828600 </v>
   <v>       0.00000001      -0.00578372       0.00828600 </v>
   <v>       0.00000007       0.00577000       0.00828539 </v>
   <v>      -0.00000007      -0.00577000      -0.00828539 </v>
  </varray>
  <varray name="stress" >
   <v>     -33.88528174       0.00000027      -0.00000057 </v>
   <v>       0.00000025      -6.86917646       0.00021498 </v>
   <v>      -0.00000056       0.00021496      -0.23511739 </v>
  </varray>
  <energy>
   <i name="e_fr_energy">    -21.10739775 </i>
   <i name="e_wo_entrp">    -21.10739775 </i>
   <i name="e_0_energy">     -0.00000000 </i>
  </energy>
  <time name="totalsc">    9.96    9.98</time>
 </calculation>
 <calculation>
  <scstep>
   <time name="dav">    1.53    1.53</time>
   <time name="total">    1.65    1.65</time>
   <energy>
    <i name="alphaZ">      4.79728328 </i>
    <i name="ewald">   1667.55203020 </i>
    <i name="hartreedc">  -2273.19653868 </i>
    <i name="XCdc">     13.23921852 </i>
    <i name="pawpsdc">   1803.77857656 </i>
    <i name="pawaedc">  -1771.36391223 </i>
    <i name="eentropy">     -0.00000000 </i>
    <i name="bandstr">   -170.08184684 </i>
    <i name="atom">    704.16778566 </i>
    <i name="e_fr_energy">    -21.10740353 </i>
    <i name="e_wo_entrp">    -21.10740353 </i>
    <i name="e_0_energy">    -21.10740353 </i>
   </energy>
  </scstep>
  <scstep>
   <time name="dav">    1.85    1.85</time>
   <time name="total">    1.97    1.97</time>
   <energy>
    <i name="e_fr_energy">    -21.10740896 </i>
    <i name="e_wo_entrp">    -21.10740896 </i>
    <i name="e_0_energy">    -21.10740896 </i>
   </energy>
  </scstep>
  <scstep>
   <time name="dav">    1.22    1.22</time>
   <time name="total">    1.34    1.34</time>
   <energy>
    <i name="e_fr_energy">    -21.10740896 </i>
    <i name="e_wo_entrp">    -21.10740896 </i>
    <i name="e_0_energy">    -21.10740896 </i>
   </energy>
  </scstep>
  <scstep>
   <time name="dav">    1.19    1.19</time>
   <time name="total">    1.30    1.30</time>
   <energy>
    <i name="e_fr_energy">    -21.10740911 </i>
    <i name="e_wo_entrp">    -21.10740911 </i>
    <i name="e_0_energy">    -21.10740911 </i>
   </energy>
  </scstep>
  <scstep>
   <time name="dav">    1.16    1.16</time>
   <time name="total">    1.27    1.27</time>
   <energy>
    <i name="e_fr_energy">    -21.10740912 </i>
    <i name="e_wo_entrp">    -21.10740912 </i>
    <i name="e_0_energy">    -21.10740912 </i>
   </energy>
  </scstep>
  <scstep>
   <time name="dav">    1.19    1.19</time>
   <time name="total">    1.21    1.21</time>
   <energy>
    <i name="alphaZ">      4.79728328 </i>
    <i name="ewald">   1667.55203020 </i>
    <i name="hartreedc">  -2273.19723377 </i>
    <i name="XCdc">     13.23942807 </i>
    <i name="pawpsdc">   1804.73429130 </i>
    <i name="pawaedc">  -1772.31999179 </i>
    <i name="eentropy">     -0.00000000 </i>
    <i name="bandstr">   -170.08100208 </i>
    <i name="atom">    704.16778566 </i>
    <i name="e_fr_energy">    -21.10740913 </i>
    <i name="e_wo_entrp">    -21.10740913 </i>
    <i name="e_0_energy">    -21.10740913 </i>
   </energy>
  </scstep>
  <structure>
   <crystal>
    <varray name="basis" >
     <v>       3.61190600       0.00000000       0.00000000 </v>
     <v>       0.00000000       4.62335100      -0.00005300 </v>
     <v>       0.00000000       0.00000000      20.02439000 </v>
    </varray>
    <i name="volume">    334.38947561 </i>
    <varray name="rec_basis" >
     <v>       0.27686213       0.00000000       0.00000000 </v>
     <v>       0.00000000       0.21629333       0.00000000 </v>
     <v>       0.00000000       0.00000057       0.04993910 </v>
    </varray>
   </crystal>
   <varray name="positions" >
    <v>       0.50000000       0.90763288       0.55189278 </v>
    <v>       0.50000000       0.09236712       0.44810722 </v>
    <v>      -0.00000000       0.40762826       0.44810721 </v>
    <v>       0.00000000       0.59237174       0.55189279 </v>
   </varray>
  </structure>
  <varray name="forces" >
   <v>      -0.00000002      -0.00000813      -0.00006286 </v>
   <v>       0.00000002       0.00000813       0.00006286 </v>
   <v>       0.00000005      -0.00002086       0.00006357 </v>
   <v>      -0.00000005       0.00002086      -0.00006357 </v>
  </varray>
  <varray name="stress" >
   <v>     -33.87247041       0.00000005      -0.00000058 </v>
   <v>       0.00000001      -6.88776258       0.00020540 </v>
   <v>      -0.00000056       0.00020538      -0.06804033 </v>
  </varray>
  <energy>
   <i name="e_fr_energy">    -21.10740913 </i>
   <i name="e_wo_entrp">    -21.10740913 </i>
   <i name="e_0_energy">     -0.00000000 </i>
  </energy>
  <time name="totalsc">    9.51    9.52</time>
  <eigenvalues>
   <array>
    <dimension dim="1">band</dimension>
    <dimension dim="2">kpoint</dimension>
    <dimension dim="3">spin</dimension>
    <field>eigene</field>
    <field>occ</field>
    <set>
     <set comment="spin 1">
      <set comment="kpoint 1">
       <r>  -16.8889    1.0000 </r>
       <r>  -14.2509    1.0000 </r>
       <r>  -11.8252    1.0000 </r>
       <r>   -7.6817    1.0000 </r>
       <r>   -7.2212    1.0000 </r>
       <r>   -6.6013    1.0000 </r>
       <r>   -6.5012    1.0000 </r>
       <r>   -4.8793    1.0000 </r>
       <r>   -3.6362    1.0000 </r>
       <r>   -2.5526    1.0000 </r>
       <r>   -1.8664    0.0000 </r>
       <r>   -1.1496    0.0000 </r>
       <r>   -1.0781    0.0000 </r>
       <r>   -0.0866    0.0000 </r>
       <r>    2.1027    0.0000 </r>
       <r>    2.1460    0.0000 </r>
      </set>
      <set comment="kpoint 2">
       <r>  -16.8651    1.0000 </r>
       <r>  -14.2254    1.0000 </r>
       <r>  -11.8532    1.0000 </r>
       <r>   -7.6650    1.0000 </r>
       <r>   -7.2937    1.0000 </r>
       <r>   -6.6958    1.0000 </r>
       <r>   -6.4810    1.0000 </r>
       <r>   -4.9595    1.0000 </r>
       <r>   -3.6385    1.0000 </r>
       <r>   -2.5742    1.0000 </r>
       <r>   -1.6821    0.0000 </r>
       <r>   -1.0568    0.0000 </r>
       <r>   -0.9680    0.0000 </r>
       <r>   -0.1922    0.0000 </r>
       <r>    2.1264    0.0000 </r>
       <r>    2.1735    0.0000 </r>
      </set>
      <set comment="kpoint 3">
       <r>  -16.7938    1.0000 </r>
       <r>  -14.1488    1.0000 </r>
       <r>  -11.9405    1.0000 </r>
       <r>   -7.6158    1.0000 </r>
       <r>   -7.5193    1.0000 </r>
       <r>   -6.9277    1.0000 </r>
       <r>   -6.4206    1.0000 </r>
       <r>   -5.1226    1.0000 </r>
       <r>   -3.6507    1.0000 </r>
       <r>   -2.6419    1.0000 </r>
       <r>   -1.1781    0.0000 </r>
       <r>   -0.9937    0.0000 </r>
       <r>   -0.5120    0.0000 </r>
       <r>   -0.4543    0.0000 </r>
       <r>    2.1598    0.0000 </r>
       <r>    2.2556    0.0000 </r>
      </set>
      <set comment="kpoint 4">
       <r>  -16.6754    1.0000 </r>
       <r>  -14.0214    1.0000 </r>
       <r>  -12.0946    1.0000 </r>
       <r>   -7.8990    1.0000 </r>
       <r>   -7.5369    1.0000 </r>
       <r>   -7.1972    1.0000 </r>
       <r>   -6.3217    1.0000 </r>
       <r>   -5.2482    1.0000 </r>
       <r>   -3.6894    1.0000 </r>
       <r>   -2.7595    1.0000 </r>
       <r>   -0.8915    0.0000 </r>
       <r>   -0.7627    0.0000 </r>
       <r>   -0.4559    0.0000 </r>
       <r>    0.0165    0.0000 </r>
       <r>    1.8359    0.0000 </r>
       <r>    2.3904    0.0000 </r>
      </set>
      <set comment="kpoint 5">
       <r>  -16.5107    1.0000 </r>
       <r>  -13.8434    1.0000 </r>
       <r>  -12.3219    1.0000 </r>
       <r>   -8.3982    1.0000 </r>
       <r>   -7.4337    1.0000 </r>
       <r>   -7.4245    1.0000 </r>
       <r>   -6.1870    1.0000 </r>
       <r>   -5.2907    1.0000 </r>
       <r>   -3.7778    1.0000 </r>
       <r>   -2.9284    1.0000 </r>
       <r>   -1.0184    0.0000 </r>
       <r>   -0.7572    0.0000 </r>
       <r>    0.3218    0.0000 </r>
       <r>    0.3792    0.0000 </r>
       <r>    1.3652    0.0000 </r>
       <r>    2.3281    0.0000 </r>
      </set>
      <set comment="kpoint 6">
       <r>  -16.3008    1.0000 </r>
       <r>  -13.6154    1.0000 </r>
       <r>  -12.6214    1.0000 </r>
       <r>   -8.9648    1.0000 </r>
       <r>   -7.5676    1.0000 </r>
       <r>   -7.3154    1.0000 </r>
       <r>   -6.0213    1.0000 </r>
       <r>   -5.2638    1.0000 </r>
       <r>   -3.9303    1.0000 </r>
       <r>   -3.1458    1.0000 </r>
       <r>   -1.1557    0.0000 </r>
       <r>   -0.6091    0.0000 </r>
       <r>    0.1932    0.0000 </r>
       <r>    0.9116    0.0000 </r>
       <r>    1.1469    0.0000 </r>
       <r>    2.4413    0.0000 </r>
      </set>
      <set comment="kpoint 7">
       <r>  -16.0472    1.0000 </r>
       <r>  -13.3380    1.0000 </r>
       <r>  -12.9818    1.0000 </r>
       <r>   -9.5562    1.0000 </r>
       <r>   -7.6152    1.0000 </r>
       <r>   -7.1973    1.0000 </r>
       <r>   -5.8316    1.0000 </r>
       <r>   -5.1970    1.0000 </r>
       <r>   -4.1306    1.0000 </r>
       <r>   -3.4026    1.0000 </r>
       <r>   -1.1525    0.0000 </r>
       <r>   -0.5031    0.0000 </r>
       <r>   -0.1646    0.0000 </r>
       <r>    0.5657    0.0000 </r>
       <r>    1.3772    0.0000 </r>
       <r>    2.4903    0.0000 </r>
      </set>
      <set comment="kpoint 8">
       <r>  -15.7522    1.0000 </r>
       <r>  -13.3843    1.0000 </r>
       <r>  -13.0120    1.0000 </r>
       <r>  -10.1448    1.0000 </r>
       <r>   -7.5769    1.0000 </r>
       <r>   -7.1023    1.0000 </r>
       <r>   -5.6287    1.0000 </r>
       <r>   -5.1209    1.0000 </r>
       <r>   -4.3298    1.0000 </r>
       <r>   -3.6821    1.0000 </r>
       <r>   -1.0226    0.0000 </r>
       <r>   -0.5580    0.0000 </r>
       <r>   -0.5399    0.0000 </r>
       <r>    0.4705    0.0000 </r>
       <r>    1.1009    0.0000 </r>
       <r>    2.3120    0.0000 </r>
      </set>
      <set comment="kpoint 9">
       <r>  -15.4187    1.0000 </r>
       <r>  -13.8085    1.0000 </r>
       <r>  -12.6387    1.0000 </r>
       <r>  -10.7140    1.0000 </r>
       <r>   -7.4737    1.0000 </r>
       <r>   -7.0597    1.0000 </r>
       <r>   -5.4284    1.0000 </r>
       <r>   -5.0662    1.0000 </r>
       <r>   -4.4668    1.0000 </r>
       <r>   -3.9617    1.0000 </r>
       <r>   -0.8406    0.0000 </r>
       <r>   -0.7924    0.0000 </r>
       <r>   -0.7616    0.0000 </r>
       <r>    0.6353    0.0000 </r>
       <r>    0.6988    0.0000 </r>
       <r>    2.0015    0.0000 </r>
      </set>
      <set comment="kpoint 10">
       <r>  -15.0509    1.0000 </r>
       <r>  -14.2366    1.0000 </r>
       <r>  -12.2196    1.0000 </r>
       <r>  -11.2536    1.0000 </r>
       <r>   -7.3342    1.0000 </r>
       <r>   -7.0916    1.0000 </r>
       <r>   -5.2520    1.0000 </r>
       <r>   -5.0611    1.0000 </r>
       <r>   -4.4948    1.0000 </r>
       <r>   -4.2131    1.0000 </r>
       <r>   -1.0200    0.0000 </r>
       <r>   -0.9577    0.0000 </r>
       <r>   -0.4861    0.0000 </r>
       <r>    0.2789    0.0000 </r>
       <r>    0.9258    0.0000 </r>
       <r>    1.6399    0.0000 </r>
      </set>
      <set comment="kpoint 11">
       <r>  -14.6543    1.0000 </r>
       <r>  -14.6542    1.0000 </r>
       <r>  -11.7569    1.0000 </r>
       <r>  -11.7569    1.0000 </r>
       <r>   -7.1935    1.0000 </r>
       <r>   -7.1935    1.0000 </r>
       <r>   -5.1235    1.0000 </r>
       <r>   -5.1235    1.0000 </r>
       <r>   -4.4026    1.0000 </r>
       <r>   -4.4026    1.0000 </r>
       <r>   -1.0567    0.0000 </r>
       <r>   -1.0567    0.0000 </r>
       <r>   -0.1231    0.0000 </r>
       <r>   -0.1231    0.0000 </r>
       <r>    1.2715    0.0000 </r>
       <r>    1.2715    0.0000 </r>
      </set>
      <set comment="kpoint 12">
       <r>  -16.8702    1.0000 </r>
       <r>  -14.2868    1.0000 </r>
       <r>  -11.8096    1.0000 </r>
       <r>   -7.8949    1.0000 </r>
       <r>   -7.0449    1.0000 </r>
       <r>   -6.5859    1.0000 </r>
       <r>   -6.4447    1.0000 </r>
       <r>   -4.8943    1.0000 </r>
       <r>   -3.5789    1.0000 </r>
       <r>   -2.6642    1.0000 </r>
       <r>   -1.8447    0.0000 </r>
       <r>   -1.2020    0.0000 </r>
       <r>   -0.9755    0.0000 </r>
       <r>   -0.0989    0.0000 </r>
       <r>    2.1421    0.0000 </r>
       <r>    2.1718    0.0000 </r>
      </set>
      <set comment="kpoint 13">
       <r>  -16.8465    1.0000 </r>
       <r>  -14.2616    1.0000 </r>
       <r>  -11.8362    1.0000 </r>
       <r>   -7.8973    1.0000 </r>
       <r>   -7.0964    1.0000 </r>
       <r>   -6.7106    1.0000 </r>
       <r>   -6.3943    1.0000 </r>
       <r>   -4.9801    1.0000 </r>
       <r>   -3.5830    1.0000 </r>
       <r>   -2.6819    1.0000 </r>
       <r>   -1.6626    0.0000 </r>
       <r>   -1.0212    0.0000 </r>
       <r>   -0.9572    0.0000 </r>
       <r>   -0.1938    0.0000 </r>
       <r>    2.1644    0.0000 </r>
       <r>    2.1993    0.0000 </r>
      </set>
      <set comment="kpoint 14">
       <r>  -16.7752    1.0000 </r>
       <r>  -14.1864    1.0000 </r>
       <r>  -11.9191    1.0000 </r>
       <r>   -7.9307    1.0000 </r>
       <r>   -7.2358    1.0000 </r>
       <r>   -6.9632    1.0000 </r>
       <r>   -6.3147    1.0000 </r>
       <r>   -5.1535    1.0000 </r>
       <r>   -3.6041    1.0000 </r>
       <r>   -2.7386    1.0000 </r>
       <r>   -1.1678    0.0000 </r>
       <r>   -0.8992    0.0000 </r>
       <r>   -0.6166    0.0000 </r>
       <r>   -0.3766    0.0000 </r>
       <r>    2.1396    0.0000 </r>
       <r>    2.2813    0.0000 </r>
      </set>
      <set comment="kpoint 15">
       <r>  -16.6570    1.0000 </r>
       <r>  -14.0618    1.0000 </r>
       <r>  -12.0661    1.0000 </r>
       <r>   -8.1012    1.0000 </r>
       <r>   -7.3642    1.0000 </r>
       <r>   -7.2417    1.0000 </r>
       <r>   -6.2111    1.0000 </r>
       <r>   -5.2865    1.0000 </r>
       <r>   -3.6606    1.0000 </r>
       <r>   -2.8398    1.0000 </r>
       <r>   -0.8234    0.0000 </r>
       <r>   -0.7482    0.0000 </r>
       <r>   -0.4416    0.0000 </r>
       <r>    0.0225    0.0000 </r>
       <r>    1.7231    0.0000 </r>
       <r>    2.3810    0.0000 </r>
      </set>
      <set comment="kpoint 16">
       <r>  -16.4926    1.0000 </r>
       <r>  -13.8894    1.0000 </r>
       <r>  -12.2832    1.0000 </r>
       <r>   -8.4926    1.0000 </r>
       <r>   -7.4738    1.0000 </r>
       <r>   -7.3688    1.0000 </r>
       <r>   -6.0791    1.0000 </r>
       <r>   -5.3340    1.0000 </r>
       <r>   -3.7718    1.0000 </r>
       <r>   -2.9900    1.0000 </r>
       <r>   -0.9619    0.0000 </r>
       <r>   -0.7016    0.0000 </r>
       <r>    0.3558    0.0000 </r>
       <r>    0.3586    0.0000 </r>
       <r>    1.2837    0.0000 </r>
       <r>    2.3426    0.0000 </r>
      </set>
      <set comment="kpoint 17">
       <r>  -16.2830    1.0000 </r>
       <r>  -13.6743    1.0000 </r>
       <r>  -12.5658    1.0000 </r>
       <r>   -9.0174    1.0000 </r>
       <r>   -7.6189    1.0000 </r>
       <r>   -7.2918    1.0000 </r>
       <r>   -5.9218    1.0000 </r>
       <r>   -5.3147    1.0000 </r>
       <r>   -3.9412    1.0000 </r>
       <r>   -3.1880    1.0000 </r>
       <r>   -1.0658    0.0000 </r>
       <r>   -0.5700    0.0000 </r>
       <r>    0.2627    0.0000 </r>
       <r>    0.6496    0.0000 </r>
       <r>    1.3425    0.0000 </r>
       <r>    2.4240    0.0000 </r>
      </set>
      <set comment="kpoint 18">
       <r>  -16.0300    1.0000 </r>
       <r>  -13.4444    1.0000 </r>
       <r>  -12.8757    1.0000 </r>
       <r>   -9.5906    1.0000 </r>
       <r>   -7.6660    1.0000 </r>
       <r>   -7.1894    1.0000 </r>
       <r>   -5.7474    1.0000 </r>
       <r>   -5.2659    1.0000 </r>
       <r>   -4.1378    1.0000 </r>
       <r>   -3.4246    1.0000 </r>
       <r>   -1.0440    0.0000 </r>
       <r>   -0.4911    0.0000 </r>
       <r>   -0.0838    0.0000 </r>
       <r>    0.3793    0.0000 </r>
       <r>    1.5886    0.0000 </r>
       <r>    2.4592    0.0000 </r>
      </set>
      <set comment="kpoint 19">
       <r>  -15.7359    1.0000 </r>
       <r>  -13.4593    1.0000 </r>
       <r>  -12.9357    1.0000 </r>
       <r>  -10.1698    1.0000 </r>
       <r>   -7.6243    1.0000 </r>
       <r>   -7.1004    1.0000 </r>
       <r>   -5.5700    1.0000 </r>
       <r>   -5.2263    1.0000 </r>
       <r>   -4.3011    1.0000 </r>
       <r>   -3.6811    1.0000 </r>
       <r>   -0.9277    0.0000 </r>
       <r>   -0.5961    0.0000 </r>
       <r>   -0.4419    0.0000 </r>
       <r>    0.3262    0.0000 </r>
       <r>    1.3482    0.0000 </r>
       <r>    2.2800    0.0000 </r>
      </set>
      <set comment="kpoint 20">
       <r>  -15.4036    1.0000 </r>
       <r>  -13.8209    1.0000 </r>
       <r>  -12.6246    1.0000 </r>
       <r>  -10.7330    1.0000 </r>
       <r>   -7.5148    1.0000 </r>
       <r>   -7.0617    1.0000 </r>
       <r>   -5.4108    1.0000 </r>
       <r>   -5.2177    1.0000 </r>
       <r>   -4.3781    1.0000 </r>
       <r>   -3.9306    1.0000 </r>
       <r>   -0.9045    0.0000 </r>
       <r>   -0.8265    0.0000 </r>
       <r>   -0.5501    0.0000 </r>
       <r>    0.4564    0.0000 </r>
       <r>    1.0221    0.0000 </r>
       <r>    1.9744    0.0000 </r>
      </set>
      <set comment="kpoint 21">
       <r>  -15.0378    1.0000 </r>
       <r>  -14.2335    1.0000 </r>
       <r>  -12.2212    1.0000 </r>
       <r>  -11.2678    1.0000 </r>
       <r>   -7.3660    1.0000 </r>
       <r>   -7.1008    1.0000 </r>
       <r>   -5.2959    1.0000 </r>
       <r>   -5.2248    1.0000 </r>
       <r>   -4.3668    1.0000 </r>
       <r>   -4.1413    1.0000 </r>
       <r>   -1.0555    0.0000 </r>
       <r>   -1.0215    0.0000 </r>
       <r>   -0.2999    0.0000 </r>
       <r>    0.3746    0.0000 </r>
       <r>    0.9876    0.0000 </r>
       <r>    1.6222    0.0000 </r>
      </set>
      <set comment="kpoint 22">
       <r>  -14.6446    1.0000 </r>
       <r>  -14.6446    1.0000 </r>
       <r>  -11.7659    1.0000 </r>
       <r>  -11.7659    1.0000 </r>
       <r>   -7.2139    1.0000 </r>
       <r>   -7.2139    1.0000 </r>
       <r>   -5.2403    1.0000 </r>
       <r>   -5.2403    1.0000 </r>
       <r>   -4.2879    1.0000 </r>
       <r>   -4.2879    1.0000 </r>
       <r>   -1.1066    0.0000 </r>
       <r>   -1.1066    0.0000 </r>
       <r>    0.0379    0.0000 </r>
       <r>    0.0379    0.0000 </r>
       <r>    1.2724    0.0000 </r>
       <r>    1.2724    0.0000 </r>
      </set>
      <set comment="kpoint 23">
       <r>  -15.0378    1.0000 </r>
       <r>  -14.2335    1.0000 </r>
       <r>  -12.2212    1.0000 </r>
       <r>  -11.2678    1.0000 </r>
       <r>   -7.3660    1.0000 </r>
       <r>   -7.1008    1.0000 </r>
       <r>   -5.2959    1.0000 </r>
       <r>   -5.2248    1.0000 </r>
       <r>   -4.3668    1.0000 </r>
       <r>   -4.1413    1.0000 </r>
       <r>   -1.0555    0.0000 </r>
       <r>   -1.0215    0.0000 </r>
       <r>   -0.2999    0.0000 </r>
       <r>    0.3746    0.0000 </r>
       <r>    0.9876    0.0000 </r>
       <r>    1.6222    0.0000 </r>
      </set>
      <set comment="kpoint 24">
       <r>  -15.4036    1.0000 </r>
       <r>  -13.8209    1.0000 </r>
       <r>  -12.6246    1.0000 </r>
       <r>  -10.7330    1.0000 </r>
       <r>   -7.5148    1.0000 </r>
       <r>   -7.0617    1.0000 </r>
       <r>   -5.4108    1.0000 </r>
       <r>   -5.2177    1.0000 </r>
       <r>   -4.3781    1.0000 </r>
       <r>   -3.9306    1.0000 </r>
       <r>   -0.9045    0.0000 </r>
       <r>   -0.8265    0.0000 </r>
       <r>   -0.5501    0.0000 </r>
       <r>    0.4564    0.0000 </r>
       <r>    1.0221    0.0000 </r>
       <r>    1.9744    0.0000 </r>
      </set>
      <set comment="kpoint 25">
       <r>  -15.7359    1.0000 </r>
       <r>  -13.4593    1.0000 </r>
       <r>  -12.9357    1.0000 </r>
       <r>  -10.1698    1.0000 </r>
       <r>   -7.6243    1.0000 </r>
       <r>   -7.1004    1.0000 </r>
       <r>   -5.5700    1.0000 </r>
       <r>   -5.2263    1.0000 </r>
       <r>   -4.3011    1.0000 </r>
       <r>   -3.6811    1.0000 </r>
       <r>   -0.9277    0.0000 </r>
       <r>   -0.5961    0.0000 </r>
       <r>   -0.4419    0.0000 </r>
       <r>    0.3262    0.0000 </r>
       <r>    1.3482    0.0000 </r>
       <r>    2.2800    0.0000 </r>
      </set>
      <set comment="kpoint 26">
       <r>  -16.0300    1.0000 </r>
       <r>  -13.4444    1.0000 </r>
       <r>  -12.8757    1.0000 </r>
       <r>   -9.5906    1.0000 </r>
       <r>   -7.6660    1.0000 </r>
       <r>   -7.1894    1.0000 </r>
       <r>   -5.7474    1.0000 </r>
       <r>   -5.2659    1.0000 </r>
       <r>   -4.1378    1.0000 </r>
       <r>   -3.4246    1.0000 </r>
       <r>   -1.0440    0.0000 </r>
       <r>   -0.4911    0.0000 </r>
       <r>   -0.0838    0.0000 </r>
       <r>    0.3793    0.0000 </r>
       <r>    1.5886    0.0000 </r>
       <r>    2.4592    0.0000 </r>
      </set>
      <set comment="kpoint 27">
       <r>  -16.2830    1.0000 </r>
       <r>  -13.6743    1.0000 </r>
       <r>  -12.5658    1.0000 </r>
       <r>   -9.0174    1.0000 </r>
       <r>   -7.6189    1.0000 </r>
       <r>   -7.2918    1.0000 </r>
       <r>   -5.9218    1.0000 </r>
       <r>   -5.3147    1.0000 </r>
       <r>   -3.9412    1.0000 </r>
       <r>   -3.1880    1.0000 </r>
       <r>   -1.0658    0.0000 </r>
       <r>   -0.5700    0.0000 </r>
       <r>    0.2627    0.0000 </r>
       <r>    0.6496    0.0000 </r>
       <r>    1.3425    0.0000 </r>
       <r>    2.4240    0.0000 </r>
      </set>
      <set comment="kpoint 28">
       <r>  -16.4926    1.0000 </r>
       <r>  -13.8894    1.0000 </r>
       <r>  -12.2832    1.0000 </r>
       <r>   -8.4926    1.0000 </r>
       <r>   -7.4738    1.0000 </r>
       <r>   -7.3688    1.0000 </r>
       <r>   -6.0791    1.0000 </r>
       <r>   -5.3340    1.0000 </r>
       <r>   -3.7718    1.0000 </r>
       <r>   -2.9900    1.0000 </r>
       <r>   -0.9619    0.0000 </r>
       <r>   -0.7016    0.0000 </r>
       <r>    0.3558    0.0000 </r>
       <r>    0.3586    0.0000 </r>
       <r>    1.2837    0.0000 </r>
       <r>    2.3426    0.0000 </r>
      </set>
      <set comment="kpoint 29">
       <r>  -16.6570    1.0000 </r>
       <r>  -14.0618    1.0000 </r>
       <r>  -12.0661    1.0000 </r>
       <r>   -8.1012    1.0000 </r>
       <r>   -7.3642    1.0000 </r>
       <r>   -7.2417    1.0000 </r>
       <r>   -6.2111    1.0000 </r>
       <r>   -5.2865    1.0000 </r>
       <r>   -3.6606    1.0000 </r>
       <r>   -2.8398    1.0000 </r>
       <r>   -0.8234    0.0000 </r>
       <r>   -0.7482    0.0000 </r>
       <r>   -0.4416    0.0000 </r>
       <r>    0.0225    0.0000 </r>
       <r>    1.7231    0.0000 </r>
       <r>    2.3810    0.0000 </r>
      </set>
      <set comment="kpoint 30">
       <r>  -16.7752    1.0000 </r>
       <r>  -14.1864    1.0000 </r>
       <r>  -11.9191    1.0000 </r>
       <r>   -7.9307    1.0000 </r>
       <r>   -7.2358    1.0000 </r>
       <r>   -6.9632    1.0000 </r>
       <r>   -6.3147    1.0000 </r>
       <r>   -5.1535    1.0000 </r>
       <r>   -3.6041    1.0000 </r>
       <r>   -2.7386    1.0000 </r>
       <r>   -1.1678    0.0000 </r>
       <r>   -0.8992    0.0000 </r>
       <r>   -0.6166    0.0000 </r>
       <r>   -0.3766    0.0000 </r>
       <r>    2.1396    0.0000 </r>
       <r>    2.2848    0.0000 </r>
      </set>
      <set comment="kpoint 31">
       <r>  -16.8465    1.0000 </r>
       <r>  -14.2616    1.0000 </r>
       <r>  -11.8362    1.0000 </r>
       <r>   -7.8973    1.0000 </r>
       <r>   -7.0964    1.0000 </r>
       <r>   -6.7106    1.0000 </r>
       <r>   -6.3943    1.0000 </r>
       <r>   -4.9801    1.0000 </r>
       <r>   -3.5830    1.0000 </r>
       <r>   -2.6819    1.0000 </r>
       <r>   -1.6626    0.0000 </r>
       <r>   -1.0212    0.0000 </r>
       <r>   -0.9572    0.0000 </r>
       <r>   -0.1938    0.0000 </r>
       <r>    2.1644    0.0000 </r>
       <r>    2.1993    0.0000 </r>
      </set>
      <set comment="kpoint 32">
       <r>  -16.8145    1.0000 </r>
       <r>  -14.3912    1.0000 </r>
       <r>  -11.7607    1.0000 </r>
       <r>   -8.2677    1.0000 </r>
       <r>   -6.7734    1.0000 </r>
       <r>   -6.5401    1.0000 </r>
       <r>   -6.2810    1.0000 </r>
       <r>   -4.9397    1.0000 </r>
       <r>   -3.4217    1.0000 </r>
       <r>   -2.9358    1.0000 </r>
       <r>   -1.7822    0.0000 </r>
       <r>   -1.3499    0.0000 </r>
       <r>   -0.7279    0.0000 </r>
       <r>   -0.1284    0.0000 </r>
       <r>    2.2489    0.0000 </r>
       <r>    2.2573    0.0000 </r>
      </set>
      <set comment="kpoint 33">
       <r>  -16.7908    1.0000 </r>
       <r>  -14.3671    1.0000 </r>
       <r>  -11.7834    1.0000 </r>
       <r>   -8.2754    1.0000 </r>
       <r>   -6.8149    1.0000 </r>
       <r>   -6.7082    1.0000 </r>
       <r>   -6.1873    1.0000 </r>
       <r>   -5.0388    1.0000 </r>
       <r>   -3.4347    1.0000 </r>
       <r>   -2.9466    1.0000 </r>
       <r>   -1.6065    0.0000 </r>
       <r>   -1.1651    0.0000 </r>
       <r>   -0.7143    0.0000 </r>
       <r>   -0.1976    0.0000 </r>
       <r>    2.2282    0.0000 </r>
       <r>    2.2764    0.0000 </r>
      </set>
      <set comment="kpoint 34">
       <r>  -16.7198    1.0000 </r>
       <r>  -14.2953    1.0000 </r>
       <r>  -11.8550    1.0000 </r>
       <r>   -8.3146    1.0000 </r>
       <r>   -7.0108    1.0000 </r>
       <r>   -6.9401    1.0000 </r>
       <r>   -6.0618    1.0000 </r>
       <r>   -5.2368    1.0000 </r>
       <r>   -3.4862    1.0000 </r>
       <r>   -2.9822    1.0000 </r>
       <r>   -1.1314    0.0000 </r>
       <r>   -0.7504    0.0000 </r>
       <r>   -0.6680    0.0000 </r>
       <r>   -0.3097    0.0000 </r>
       <r>    1.8794    0.0000 </r>
       <r>    2.3379    0.0000 </r>
      </set>
      <set comment="kpoint 35">
       <r>  -16.6021    1.0000 </r>
       <r>  -14.1772    1.0000 </r>
       <r>  -11.9837    1.0000 </r>
       <r>   -8.4398    1.0000 </r>
       <r>   -7.3216    1.0000 </r>
       <r>   -7.1117    1.0000 </r>
       <r>   -5.9386    1.0000 </r>
       <r>   -5.3863    1.0000 </r>
       <r>   -3.5940    1.0000 </r>
       <r>   -3.0498    1.0000 </r>
       <r>   -0.6834    0.0000 </r>
       <r>   -0.6617    0.0000 </r>
       <r>   -0.3909    0.0000 </r>
[...]
       <r>    1.4974    0.0000 </r>
       <r>    1.4974    0.0000 </r>
      </set>
      <set comment="kpoint 157">
       <r>  -15.2581    1.0000 </r>
       <r>  -15.2581    1.0000 </r>
       <r>  -10.8973    1.0000 </r>
       <r>  -10.8973    1.0000 </r>
       <r>   -7.6644    1.0000 </r>
       <r>   -7.6644    1.0000 </r>
       <r>   -5.2961    1.0000 </r>
       <r>   -5.2961    1.0000 </r>
       <r>   -3.8206    1.0000 </r>
       <r>   -3.8206    1.0000 </r>
       <r>   -0.1224    0.0000 </r>
       <r>   -0.1224    0.0000 </r>
       <r>    1.0375    0.0000 </r>
       <r>    1.0375    0.0000 </r>
       <r>    1.9862    0.0000 </r>
       <r>    1.9862    0.0000 </r>
      </set>
      <set comment="kpoint 158">
       <r>  -15.0458    1.0000 </r>
       <r>  -15.0457    1.0000 </r>
       <r>  -11.1463    1.0000 </r>
       <r>  -11.1463    1.0000 </r>
       <r>   -7.7870    1.0000 </r>
       <r>   -7.7870    1.0000 </r>
       <r>   -5.5637    1.0000 </r>
       <r>   -5.5637    1.0000 </r>
       <r>   -3.8130    1.0000 </r>
       <r>   -3.8130    1.0000 </r>
       <r>    0.1032    0.0000 </r>
       <r>    0.1032    0.0000 </r>
       <r>    0.9160    0.0000 </r>
       <r>    0.9160    0.0000 </r>
       <r>    2.5786    0.0000 </r>
       <r>    2.5786    0.0000 </r>
      </set>
      <set comment="kpoint 159">
       <r>  -14.8179    1.0000 </r>
       <r>  -14.8179    1.0000 </r>
       <r>  -11.4493    1.0000 </r>
       <r>  -11.4493    1.0000 </r>
       <r>   -7.7550    1.0000 </r>
       <r>   -7.7550    1.0000 </r>
       <r>   -5.9104    1.0000 </r>
       <r>   -5.9104    1.0000 </r>
       <r>   -3.7471    1.0000 </r>
       <r>   -3.7471    1.0000 </r>
       <r>    0.2088    0.0000 </r>
       <r>    0.2088    0.0000 </r>
       <r>    0.8501    0.0000 </r>
       <r>    0.8501    0.0000 </r>
       <r>    2.9460    0.0000 </r>
       <r>    2.9460    0.0000 </r>
      </set>
      <set comment="kpoint 160">
       <r>  -14.5982    1.0000 </r>
       <r>  -14.5981    1.0000 </r>
       <r>  -11.7508    1.0000 </r>
       <r>  -11.7508    1.0000 </r>
       <r>   -7.6006    1.0000 </r>
       <r>   -7.6006    1.0000 </r>
       <r>   -6.2908    1.0000 </r>
       <r>   -6.2908    1.0000 </r>
       <r>   -3.6597    1.0000 </r>
       <r>   -3.6597    1.0000 </r>
       <r>    0.1367    0.0000 </r>
       <r>    0.1367    0.0000 </r>
       <r>    0.9615    0.0000 </r>
       <r>    0.9615    0.0000 </r>
       <r>    3.0460    0.0000 </r>
       <r>    3.0461    0.0000 </r>
      </set>
      <set comment="kpoint 161">
       <r>  -14.4273    1.0000 </r>
       <r>  -14.4273    1.0000 </r>
       <r>  -11.9818    1.0000 </r>
       <r>  -11.9818    1.0000 </r>
       <r>   -7.3583    1.0000 </r>
       <r>   -7.3583    1.0000 </r>
       <r>   -6.6680    1.0000 </r>
       <r>   -6.6680    1.0000 </r>
       <r>   -3.5883    1.0000 </r>
       <r>   -3.5883    1.0000 </r>
       <r>    0.0238    0.0000 </r>
       <r>    0.0238    0.0000 </r>
       <r>    1.1274    0.0000 </r>
       <r>    1.1274    0.0000 </r>
       <r>    2.9901    0.0000 </r>
       <r>    2.9901    0.0000 </r>
      </set>
      <set comment="kpoint 162">
       <r>  -14.3604    1.0000 </r>
       <r>  -14.3604    1.0000 </r>
       <r>  -12.0706    1.0000 </r>
       <r>  -12.0706    1.0000 </r>
       <r>   -7.1182    1.0000 </r>
       <r>   -7.1182    1.0000 </r>
       <r>   -6.9528    1.0000 </r>
       <r>   -6.9528    1.0000 </r>
       <r>   -3.5608    1.0000 </r>
       <r>   -3.5608    1.0000 </r>
       <r>   -0.0231    0.0000 </r>
       <r>   -0.0231    0.0000 </r>
       <r>    1.2037    0.0000 </r>
       <r>    1.2037    0.0000 </r>
       <r>    2.9372    0.0000 </r>
       <r>    2.9372    0.0000 </r>
      </set>
     </set>
    </set>
   </array>
  </eigenvalues>
  <separator name="orbital magnetization" >
   <v name="MAGDIPOLOUT">      0.00000000      0.00000000      0.00000000</v>
  </separator>
  <dos>
   <i name="efermi">     -2.45281170 </i>
   <total>
    <array>
     <dimension dim="1">gridpoints</dimension>
     <dimension dim="2">spin</dimension>
     <field>energy</field>
     <field>total</field>
     <field>integrated</field>
     <set>
      <set comment="spin 1">
       <r>   -17.8959     0.0000     0.0000 </r>
       <r>   -17.8221     0.0000     0.0000 </r>
       <r>   -17.7482     0.0000     0.0000 </r>
       <r>   -17.6744     0.0000     0.0000 </r>
       <r>   -17.6005     0.0000     0.0000 </r>
       <r>   -17.5267     0.0000     0.0000 </r>
       <r>   -17.4528     0.0000     0.0000 </r>
       <r>   -17.3790     0.0000     0.0000 </r>
       <r>   -17.3051     0.0000     0.0000 </r>
       <r>   -17.2313     0.0000     0.0000 </r>
       <r>   -17.1574     0.0000     0.0000 </r>
       <r>   -17.0836     0.0000     0.0000 </r>
       <r>   -17.0097     0.0000     0.0000 </r>
       <r>   -16.9359     0.0000     0.0000 </r>
       <r>   -16.8621     0.3486     0.0257 </r>
       <r>   -16.7882     0.9419     0.0953 </r>
       <r>   -16.7144     0.8742     0.1599 </r>
       <r>   -16.6405     0.9914     0.2331 </r>
       <r>   -16.5667     1.0331     0.3094 </r>
       <r>   -16.4928     1.0034     0.3835 </r>
       <r>   -16.4190     0.8716     0.4478 </r>
       <r>   -16.3451     0.9736     0.5197 </r>
       <r>   -16.2713     0.7670     0.5764 </r>
       <r>   -16.1974     1.5578     0.6914 </r>
       <r>   -16.1236     0.6723     0.7411 </r>
       <r>   -16.0497     0.5558     0.7821 </r>
       <r>   -15.9759     1.7008     0.9077 </r>
       <r>   -15.9020     0.6287     0.9541 </r>
       <r>   -15.8282     1.0278     1.0300 </r>
       <r>   -15.7544     1.0403     1.1068 </r>
       <r>   -15.6805     1.4020     1.2104 </r>
       <r>   -15.6067     0.9911     1.2836 </r>
       <r>   -15.5328     0.5725     1.3258 </r>
       <r>   -15.4590     1.3322     1.4242 </r>
       <r>   -15.3851     1.2688     1.5179 </r>
       <r>   -15.3113     1.0289     1.5939 </r>
       <r>   -15.2374     1.3983     1.6972 </r>
       <r>   -15.1636     1.4191     1.8020 </r>
       <r>   -15.0897     0.1364     1.8120 </r>
       <r>   -15.0159     1.8587     1.9493 </r>
       <r>   -14.9420     1.3943     2.0522 </r>
       <r>   -14.8682     1.1200     2.1349 </r>
       <r>   -14.7944     1.2663     2.2285 </r>
       <r>   -14.7205     1.5439     2.3425 </r>
       <r>   -14.6467     1.1091     2.4244 </r>
       <r>   -14.5728     1.9968     2.5718 </r>
       <r>   -14.4990     1.8915     2.7115 </r>
       <r>   -14.4251     1.4800     2.8208 </r>
       <r>   -14.3513     2.1848     2.9821 </r>
       <r>   -14.2774     1.6509     3.1040 </r>
       <r>   -14.2036     3.2804     3.3463 </r>
       <r>   -14.1297     1.6142     3.4655 </r>
       <r>   -14.0559     0.7035     3.5174 </r>
       <r>   -13.9820     1.4695     3.6260 </r>
       <r>   -13.9082     0.4794     3.6614 </r>
       <r>   -13.8344     1.2857     3.7563 </r>
       <r>   -13.7605     1.0938     3.8371 </r>
       <r>   -13.6867     0.0703     3.8423 </r>
       <r>   -13.6128     0.8641     3.9061 </r>
       <r>   -13.5390     0.2561     3.9250 </r>
       <r>   -13.4651     0.1395     3.9353 </r>
       <r>   -13.3913     0.5900     3.9789 </r>
       <r>   -13.3174     0.2737     3.9991 </r>
       <r>   -13.2436     0.0124     4.0000 </r>
       <r>   -13.1697     0.0000     4.0000 </r>
       <r>   -13.0959     0.0000     4.0000 </r>
       <r>   -13.0220     0.0408     4.0030 </r>
       <r>   -12.9482     0.3602     4.0296 </r>
       <r>   -12.8744     0.4585     4.0635 </r>
       <r>   -12.8005     0.1790     4.0767 </r>
       <r>   -12.7267     0.3157     4.1000 </r>
       <r>   -12.6528     0.3649     4.1270 </r>
       <r>   -12.5790     1.1983     4.2154 </r>
       <r>   -12.5051     0.6778     4.2655 </r>
       <r>   -12.4313     0.5724     4.3078 </r>
       <r>   -12.3574     0.9089     4.3749 </r>
       <r>   -12.2836     0.4408     4.4074 </r>
       <r>   -12.2097     2.3561     4.5814 </r>
       <r>   -12.1359     1.6251     4.7014 </r>
       <r>   -12.0620     1.2406     4.7930 </r>
       <r>   -11.9882     1.6701     4.9164 </r>
       <r>   -11.9144     2.1911     5.0782 </r>
       <r>   -11.8405     1.7661     5.2086 </r>
       <r>   -11.7667     2.2042     5.3714 </r>
       <r>   -11.6928     2.4066     5.5491 </r>
       <r>   -11.6190     0.8233     5.6099 </r>
       <r>   -11.5451     1.5525     5.7245 </r>
       <r>   -11.4713     0.9952     5.7980 </r>
       <r>   -11.3974     1.3045     5.8943 </r>
       <r>   -11.3236     1.4306     6.0000 </r>
       <r>   -11.2497     0.8536     6.0630 </r>
       <r>   -11.1759     1.4665     6.1713 </r>
       <r>   -11.1020     1.1497     6.2562 </r>
       <r>   -11.0282     0.3313     6.2807 </r>
       <r>   -10.9544     0.6788     6.3308 </r>
       <r>   -10.8805     1.6355     6.4516 </r>
       <r>   -10.8067     0.6112     6.4967 </r>
       <r>   -10.7328     0.7893     6.5550 </r>
       <r>   -10.6590     0.7426     6.6098 </r>
       <r>   -10.5851     1.2337     6.7009 </r>
       <r>   -10.5113     0.8878     6.7665 </r>
       <r>   -10.4374     0.0328     6.7689 </r>
       <r>   -10.3636     0.5260     6.8078 </r>
       <r>   -10.2897     0.8100     6.8676 </r>
       <r>   -10.2159     1.5310     6.9807 </r>
       <r>   -10.1420     0.4360     7.0128 </r>
       <r>   -10.0682     0.2669     7.0326 </r>
       <r>    -9.9944     0.4909     7.0688 </r>
       <r>    -9.9205     0.7460     7.1239 </r>
       <r>    -9.8467     0.9905     7.1970 </r>
       <r>    -9.7728     0.1246     7.2063 </r>
       <r>    -9.6990     0.3515     7.2322 </r>
       <r>    -9.6251     0.6578     7.2808 </r>
       <r>    -9.5513     0.7861     7.3388 </r>
       <r>    -9.4774     0.8954     7.4050 </r>
       <r>    -9.4036     0.0465     7.4084 </r>
       <r>    -9.3297     0.6413     7.4557 </r>
       <r>    -9.2559     0.0068     7.4563 </r>
       <r>    -9.1820     0.3078     7.4790 </r>
       <r>    -9.1082     0.7482     7.5342 </r>
       <r>    -9.0344     0.5866     7.5775 </r>
       <r>    -8.9605     0.6628     7.6265 </r>
       <r>    -8.8867     0.0644     7.6313 </r>
       <r>    -8.8128     0.1484     7.6422 </r>
       <r>    -8.7390     0.2548     7.6610 </r>
       <r>    -8.6651     1.0481     7.7384 </r>
       <r>    -8.5913     0.0721     7.7437 </r>
       <r>    -8.5174     0.0133     7.7447 </r>
       <r>    -8.4436     0.4589     7.7786 </r>
       <r>    -8.3697     0.3704     7.8060 </r>
       <r>    -8.2959     0.3398     7.8311 </r>
       <r>    -8.2220     0.5101     7.8687 </r>
       <r>    -8.1482     0.0003     7.8688 </r>
       <r>    -8.0744     0.3288     7.8930 </r>
       <r>    -8.0005     0.7882     7.9513 </r>
       <r>    -7.9267     1.8817     8.0902 </r>
       <r>    -7.8528     2.9395     8.3073 </r>
       <r>    -7.7790     1.9494     8.4512 </r>
       <r>    -7.7051     2.1402     8.6093 </r>
       <r>    -7.6313     2.4004     8.7865 </r>
       <r>    -7.5574     3.6559     9.0565 </r>
       <r>    -7.4836     2.1803     9.2175 </r>
       <r>    -7.4097     1.6626     9.3403 </r>
       <r>    -7.3359     4.0454     9.6390 </r>
       <r>    -7.2620     2.5721     9.8290 </r>
       <r>    -7.1882     4.8058    10.1838 </r>
       <r>    -7.1144     4.2180    10.4953 </r>
       <r>    -7.0405     5.2865    10.8857 </r>
       <r>    -6.9667     1.8507    11.0224 </r>
       <r>    -6.8928     1.5407    11.1362 </r>
       <r>    -6.8190     0.6893    11.1871 </r>
       <r>    -6.7451     1.8148    11.3211 </r>
       <r>    -6.6713     1.7385    11.4495 </r>
       <r>    -6.5974     1.6637    11.5723 </r>
       <r>    -6.5236     1.4433    11.6789 </r>
       <r>    -6.4497     2.0705    11.8318 </r>
       <r>    -6.3759     1.8505    11.9684 </r>
       <r>    -6.3020     1.2561    12.0612 </r>
       <r>    -6.2282     2.1125    12.2172 </r>
       <r>    -6.1544     2.5193    12.4032 </r>
       <r>    -6.0805     1.2172    12.4931 </r>
       <r>    -6.0067     2.2642    12.6603 </r>
       <r>    -5.9328     1.1599    12.7460 </r>
       <r>    -5.8590     2.4597    12.9276 </r>
       <r>    -5.7851     2.0195    13.0768 </r>
       <r>    -5.7113     3.0136    13.2993 </r>
       <r>    -5.6374     2.7475    13.5022 </r>
       <r>    -5.5636     3.1384    13.7339 </r>
       <r>    -5.4897     4.0915    14.0361 </r>
       <r>    -5.4159     3.4256    14.2890 </r>
       <r>    -5.3420     4.5969    14.6285 </r>
       <r>    -5.2682     3.5097    14.8877 </r>
       <r>    -5.1944     3.3950    15.1384 </r>
       <r>    -5.1205     2.4932    15.3225 </r>
       <r>    -5.0467     3.0504    15.5478 </r>
       <r>    -4.9728     0.7860    15.6058 </r>
       <r>    -4.8990     1.8269    15.7407 </r>
       <r>    -4.8251     0.7312    15.7947 </r>
       <r>    -4.7513     1.9339    15.9375 </r>
       <r>    -4.6774     0.1753    15.9505 </r>
       <r>    -4.6036     0.6692    15.9999 </r>
       <r>    -4.5297     0.0026    16.0001 </r>
       <r>    -4.4559     0.3771    16.0279 </r>
       <r>    -4.3820     0.6358    16.0749 </r>
       <r>    -4.3082     1.2874    16.1700 </r>
       <r>    -4.2344     1.6413    16.2912 </r>
       <r>    -4.1605     1.4949    16.4016 </r>
       <r>    -4.0867     2.7193    16.6024 </r>
       <r>    -4.0128     2.5900    16.7936 </r>
       <r>    -3.9390     3.8178    17.0756 </r>
       <r>    -3.8651     3.5495    17.3377 </r>
       <r>    -3.7913     2.3795    17.5134 </r>
       <r>    -3.7174     5.7217    17.9359 </r>
       <r>    -3.6436     4.6223    18.2773 </r>
       <r>    -3.5697     5.6146    18.6919 </r>
       <r>    -3.4959     4.6042    19.0319 </r>
       <r>    -3.4220     3.0995    19.2608 </r>
       <r>    -3.3482     0.9990    19.3345 </r>
       <r>    -3.2744     1.8006    19.4675 </r>
       <r>    -3.2005     1.8288    19.6026 </r>
       <r>    -3.1267     0.8761    19.6673 </r>
       <r>    -3.0528     0.7676    19.7239 </r>
       <r>    -2.9790     1.0756    19.8034 </r>
       <r>    -2.9051     0.8738    19.8679 </r>
       <r>    -2.8313     0.2580    19.8869 </r>
       <r>    -2.7574     0.2174    19.9030 </r>
       <r>    -2.6836     0.5511    19.9437 </r>
       <r>    -2.6097     0.5077    19.9812 </r>
       <r>    -2.5359     0.2442    19.9992 </r>
       <r>    -2.4620     0.0106    20.0000 </r>
       <r>    -2.3882     0.0000    20.0000 </r>
       <r>    -2.3144     0.0000    20.0000 </r>
       <r>    -2.2405     0.0000    20.0000 </r>
       <r>    -2.1667     0.0000    20.0000 </r>
       <r>    -2.0928     0.0000    20.0000 </r>
       <r>    -2.0190     0.0000    20.0000 </r>
       <r>    -1.9451     0.0000    20.0000 </r>
       <r>    -1.8713     0.0369    20.0027 </r>
       <r>    -1.7974     0.4115    20.0331 </r>
       <r>    -1.7236     0.3930    20.0621 </r>
       <r>    -1.6497     0.7324    20.1162 </r>
       <r>    -1.5759     1.0575    20.1943 </r>
       <r>    -1.5020     1.1516    20.2794 </r>
       <r>    -1.4282     0.7103    20.3318 </r>
       <r>    -1.3543     1.0329    20.4081 </r>
       <r>    -1.2805     1.1186    20.4907 </r>
       <r>    -1.2067     0.4481    20.5238 </r>
       <r>    -1.1328     2.4050    20.7014 </r>
       <r>    -1.0590     3.0148    20.9240 </r>
       <r>    -0.9851     4.4475    21.2524 </r>
       <r>    -0.9113     3.0530    21.4779 </r>
       <r>    -0.8374     1.6186    21.5974 </r>
       <r>    -0.7636     3.3112    21.8419 </r>
       <r>    -0.6897     3.7418    22.1183 </r>
       <r>    -0.6159     3.1026    22.3474 </r>
       <r>    -0.5420     2.6332    22.5418 </r>
       <r>    -0.4682     5.5416    22.9510 </r>
       <r>    -0.3943     3.7023    23.2244 </r>
       <r>    -0.3205     3.1519    23.4572 </r>
       <r>    -0.2467     2.1114    23.6131 </r>
       <r>    -0.1728     2.7966    23.8196 </r>
       <r>    -0.0990     4.8068    24.1746 </r>
       <r>    -0.0251     4.0118    24.4709 </r>
       <r>     0.0487     3.6503    24.7404 </r>
       <r>     0.1226     2.9385    24.9574 </r>
       <r>     0.1964     4.0521    25.2567 </r>
       <r>     0.2703     2.9998    25.4782 </r>
       <r>     0.3441     4.3296    25.7979 </r>
       <r>     0.4180     4.1691    26.1058 </r>
       <r>     0.4918     5.3337    26.4996 </r>
       <r>     0.5657     3.0677    26.7262 </r>
       <r>     0.6395     2.8998    26.9403 </r>
       <r>     0.7133     3.2799    27.1825 </r>
       <r>     0.7872     1.3941    27.2855 </r>
       <r>     0.8610     1.7297    27.4132 </r>
       <r>     0.9349     2.4600    27.5949 </r>
       <r>     1.0087     2.4207    27.7736 </r>
       <r>     1.0826     3.4953    28.0317 </r>
       <r>     1.1564     2.9035    28.2462 </r>
       <r>     1.2303     2.4758    28.4290 </r>
       <r>     1.3041     2.0187    28.5781 </r>
       <r>     1.3780     2.9151    28.7933 </r>
       <r>     1.4518     0.7711    28.8503 </r>
       <r>     1.5257     2.0322    29.0003 </r>
       <r>     1.5995     2.0701    29.1532 </r>
       <r>     1.6733     1.9887    29.3001 </r>
       <r>     1.7472     1.7266    29.4276 </r>
       <r>     1.8210     1.2746    29.5217 </r>
       <r>     1.8949     2.3208    29.6931 </r>
       <r>     1.9687     3.1627    29.9266 </r>
       <r>     2.0426     2.0314    30.0766 </r>
       <r>     2.1164     1.4746    30.1855 </r>
       <r>     2.1903     3.0521    30.4109 </r>
       <r>     2.2641     2.8698    30.6229 </r>
       <r>     2.3380     3.4122    30.8748 </r>
       <r>     2.4118     3.1454    31.1071 </r>
       <r>     2.4857     2.7616    31.3110 </r>
       <r>     2.5595     0.8952    31.3771 </r>
       <r>     2.6333     1.3460    31.4765 </r>
       <r>     2.7072     0.4674    31.5111 </r>
       <r>     2.7810     0.7862    31.5691 </r>
       <r>     2.8549     1.3333    31.6676 </r>
       <r>     2.9287     0.4554    31.7012 </r>
       <r>     3.0026     1.2684    31.7949 </r>
       <r>     3.0764     1.1983    31.8834 </r>
       <r>     3.1503     0.2252    31.9000 </r>
       <r>     3.2241     0.4827    31.9356 </r>
       <r>     3.2980     0.8713    32.0000 </r>
       <r>     3.3718     0.0002    32.0000 </r>
       <r>     3.4457     0.0000    32.0000 </r>
       <r>     3.5195     0.0000    32.0000 </r>
       <r>     3.5933     0.0000    32.0000 </r>
       <r>     3.6672     0.0000    32.0000 </r>
       <r>     3.7410     0.0000    32.0000 </r>
       <r>     3.8149     0.0000    32.0000 </r>
       <r>     3.8887     0.0000    32.0000 </r>
       <r>     3.9626     0.0000    32.0000 </r>
       <r>     4.0364     0.0000    32.0000 </r>
       <r>     4.1103     0.0000    32.0000 </r>
       <r>     4.1841     0.0000    32.0000 </r>
       <r>     4.2580     0.0000    32.0000 </r>
      </set>
     </set>
    </array>
   </total>
  </dos>
 </calculation>
 <structure name="finalpos" >
  <crystal>
   <varray name="basis" >
    <v>       3.61190600       0.00000000       0.00000000 </v>
    <v>       0.00000000       4.62335100      -0.00005300 </v>
    <v>       0.00000000       0.00000000      20.02439000 </v>
   </varray>
   <i name="volume">    334.38947561 </i>
   <varray name="rec_basis" >
    <v>       0.27686213       0.00000000       0.00000000 </v>
    <v>       0.00000000       0.21629333       0.00000000 </v>
    <v>       0.00000000       0.00000057       0.04993910 </v>
   </varray>
  </crystal>
  <varray name="positions" >
   <v>       0.50000000       0.90763288       0.55189278 </v>
   <v>       0.50000000       0.09236712       0.44810722 </v>
   <v>      -0.00000000       0.40762826       0.44810721 </v>
   <v>       0.00000000       0.59237174       0.55189279 </v>
  </varray>
 </structure>
</modeling>
