<?xml version="1.0" encoding="ISO-8859-1"?>
<modeling>
 <generator>
  <i name="program" type="string">vasp </i>
  <i name="version" type="string">5.4.1  </i>
  <i name="subversion" type="string">24Jun15 (build Nov 20 2020 10:29:34) complex                          parallel </i>
  <i name="platform" type="string">IFC91_ompi </i>
  <i name="date" type="string">2021 09 09 </i>
  <i name="time" type="string">15:23:38 </i>
 </generator>
 <incar>
  <i type="string" name="PREC">a</i>
  <i type="string" name="ALGO"> Normal</i>
  <i type="int" name="ISPIN">     1</i>
  <i type="int" name="ICHARG">     2</i>
  <i type="int" name="NELM">   250</i>
  <i type="int" name="NELMDL">    -5</i>
  <i type="int" name="NELMIN">     6</i>
  <i type="int" name="IBRION">     2</i>
  <i name="EDIFF">      0.00001000</i>
  <i name="EDIFFG">     -0.01000000</i>
  <i type="int" name="NSW">   200</i>
  <i type="int" name="ISIF">     2</i>
  <i name="ENCUT">    520.00000000</i>
  <i name="POTIM">      0.30000000</i>
  <i type="logical" name="LREAL"> F  </i>
  <i type="int" name="ISMEAR">     0</i>
  <i name="SIGMA">      0.02000000</i>
  <i type="logical" name="LWAVE"> F  </i>
  <i type="logical" name="LCHARG"> F  </i>
  <i type="logical" name="LAECHG"> F  </i>
  <v type="int" name="KPOINT_BSE">    -1     0     0     0</v>
  <i type="int" name="NELM">   250</i>
 </incar>
 <kpoints>
  <generation param="Gamma">
   <v type="int" name="divisions">      22       15        1 </v>
   <v name="usershift">      0.00000000       0.00000000       0.00000000 </v>
   <v name="genvec1">      0.04545455       0.00000000       0.00000000 </v>
   <v name="genvec2">      0.00000000       0.06666667       0.00000000 </v>
   <v name="genvec3">      0.00000000      -0.00000000       1.00000000 </v>
   <v name="shift">      0.00000000       0.00000000       0.00000000 </v>
  </generation>
  <varray name="kpointlist" >
   <v>       0.00000000       0.00000000       0.00000000 </v>
   <v>       0.04545455       0.00000000       0.00000000 </v>
   <v>       0.09090909       0.00000000       0.00000000 </v>
   <v>       0.13636364       0.00000000       0.00000000 </v>
   <v>       0.18181818       0.00000000       0.00000000 </v>
   <v>       0.22727273       0.00000000       0.00000000 </v>
   <v>       0.27272727       0.00000000       0.00000000 </v>
   <v>       0.31818182       0.00000000       0.00000000 </v>
   <v>       0.36363636       0.00000000       0.00000000 </v>
   <v>       0.40909091       0.00000000       0.00000000 </v>
   <v>       0.45454545       0.00000000       0.00000000 </v>
   <v>       0.50000000       0.00000000       0.00000000 </v>
   <v>       0.00000000       0.06666667       0.00000000 </v>
   <v>       0.04545455       0.06666667       0.00000000 </v>
   <v>       0.09090909       0.06666667       0.00000000 </v>
   <v>       0.13636364       0.06666667       0.00000000 </v>
   <v>       0.18181818       0.06666667       0.00000000 </v>
   <v>       0.22727273       0.06666667       0.00000000 </v>
   <v>       0.27272727       0.06666667       0.00000000 </v>
   <v>       0.31818182       0.06666667       0.00000000 </v>
   <v>       0.36363636       0.06666667       0.00000000 </v>
   <v>       0.40909091       0.06666667       0.00000000 </v>
   <v>       0.45454545       0.06666667       0.00000000 </v>
   <v>       0.50000000       0.06666667       0.00000000 </v>
   <v>      -0.45454545       0.06666667       0.00000000 </v>
   <v>      -0.40909091       0.06666667       0.00000000 </v>
   <v>      -0.36363636       0.06666667       0.00000000 </v>
   <v>      -0.31818182       0.06666667       0.00000000 </v>
   <v>      -0.27272727       0.06666667       0.00000000 </v>
   <v>      -0.22727273       0.06666667       0.00000000 </v>
   <v>      -0.18181818       0.06666667       0.00000000 </v>
   <v>      -0.13636364       0.06666667       0.00000000 </v>
   <v>      -0.09090909       0.06666667       0.00000000 </v>
   <v>      -0.04545455       0.06666667       0.00000000 </v>
   <v>       0.00000000       0.13333333       0.00000000 </v>
   <v>       0.04545455       0.13333333       0.00000000 </v>
   <v>       0.09090909       0.13333333       0.00000000 </v>
   <v>       0.13636364       0.13333333       0.00000000 </v>
   <v>       0.18181818       0.13333333       0.00000000 </v>
   <v>       0.22727273       0.13333333       0.00000000 </v>
   <v>       0.27272727       0.13333333       0.00000000 </v>
   <v>       0.31818182       0.13333333       0.00000000 </v>
   <v>       0.36363636       0.13333333       0.00000000 </v>
   <v>       0.40909091       0.13333333       0.00000000 </v>
   <v>       0.45454545       0.13333333       0.00000000 </v>
   <v>       0.50000000       0.13333333       0.00000000 </v>
   <v>      -0.45454545       0.13333333       0.00000000 </v>
   <v>      -0.40909091       0.13333333       0.00000000 </v>
   <v>      -0.36363636       0.13333333       0.00000000 </v>
   <v>      -0.31818182       0.13333333       0.00000000 </v>
   <v>      -0.27272727       0.13333333       0.00000000 </v>
   <v>      -0.22727273       0.13333333       0.00000000 </v>
   <v>      -0.18181818       0.13333333       0.00000000 </v>
   <v>      -0.13636364       0.13333333       0.00000000 </v>
   <v>      -0.09090909       0.13333333       0.00000000 </v>
   <v>      -0.04545455       0.13333333       0.00000000 </v>
   <v>       0.00000000       0.20000000       0.00000000 </v>
   <v>       0.04545455       0.20000000       0.00000000 </v>
   <v>       0.09090909       0.20000000       0.00000000 </v>
   <v>       0.13636364       0.20000000       0.00000000 </v>
   <v>       0.18181818       0.20000000       0.00000000 </v>
   <v>       0.22727273       0.20000000       0.00000000 </v>
   <v>       0.27272727       0.20000000       0.00000000 </v>
   <v>       0.31818182       0.20000000       0.00000000 </v>
   <v>       0.36363636       0.20000000       0.00000000 </v>
   <v>       0.40909091       0.20000000       0.00000000 </v>
   <v>       0.45454545       0.20000000       0.00000000 </v>
   <v>       0.50000000       0.20000000       0.00000000 </v>
   <v>      -0.45454545       0.20000000       0.00000000 </v>
   <v>      -0.40909091       0.20000000       0.00000000 </v>
   <v>      -0.36363636       0.20000000       0.00000000 </v>
   <v>      -0.31818182       0.20000000       0.00000000 </v>
   <v>      -0.27272727       0.20000000       0.00000000 </v>
   <v>      -0.22727273       0.20000000       0.00000000 </v>
   <v>      -0.18181818       0.20000000       0.00000000 </v>
   <v>      -0.13636364       0.20000000       0.00000000 </v>
   <v>      -0.09090909       0.20000000       0.00000000 </v>
   <v>      -0.04545455       0.20000000       0.00000000 </v>
   <v>       0.00000000       0.26666667       0.00000000 </v>
   <v>       0.04545455       0.26666667       0.00000000 </v>
   <v>       0.09090909       0.26666667       0.00000000 </v>
   <v>       0.13636364       0.26666667       0.00000000 </v>
   <v>       0.18181818       0.26666667       0.00000000 </v>
   <v>       0.22727273       0.26666667       0.00000000 </v>
   <v>       0.27272727       0.26666667       0.00000000 </v>
   <v>       0.31818182       0.26666667       0.00000000 </v>
   <v>       0.36363636       0.26666667       0.00000000 </v>
   <v>       0.40909091       0.26666667       0.00000000 </v>
   <v>       0.45454545       0.26666667       0.00000000 </v>
   <v>       0.50000000       0.26666667       0.00000000 </v>
   <v>      -0.45454545       0.26666667       0.00000000 </v>
   <v>      -0.40909091       0.26666667       0.00000000 </v>
   <v>      -0.36363636       0.26666667       0.00000000 </v>
   <v>      -0.31818182       0.26666667       0.00000000 </v>
   <v>      -0.27272727       0.26666667       0.00000000 </v>
   <v>      -0.22727273       0.26666667       0.00000000 </v>
   <v>      -0.18181818       0.26666667       0.00000000 </v>
   <v>      -0.13636364       0.26666667       0.00000000 </v>
   <v>      -0.09090909       0.26666667       0.00000000 </v>
   <v>      -0.04545455       0.26666667       0.00000000 </v>
   <v>       0.00000000       0.33333333       0.00000000 </v>
   <v>       0.04545455       0.33333333       0.00000000 </v>
   <v>       0.09090909       0.33333333       0.00000000 </v>
   <v>       0.13636364       0.33333333       0.00000000 </v>
   <v>       0.18181818       0.33333333       0.00000000 </v>
   <v>       0.22727273       0.33333333       0.00000000 </v>
   <v>       0.27272727       0.33333333       0.00000000 </v>
   <v>       0.31818182       0.33333333       0.00000000 </v>
   <v>       0.36363636       0.33333333       0.00000000 </v>
   <v>       0.40909091       0.33333333       0.00000000 </v>
   <v>       0.45454545       0.33333333       0.00000000 </v>
   <v>       0.50000000       0.33333333       0.00000000 </v>
   <v>      -0.45454545       0.33333333       0.00000000 </v>
   <v>      -0.40909091       0.33333333       0.00000000 </v>
   <v>      -0.36363636       0.33333333       0.00000000 </v>
   <v>      -0.31818182       0.33333333       0.00000000 </v>
   <v>      -0.27272727       0.33333333       0.00000000 </v>
   <v>      -0.22727273       0.33333333       0.00000000 </v>
   <v>      -0.18181818       0.33333333       0.00000000 </v>
   <v>      -0.13636364       0.33333333       0.00000000 </v>
   <v>      -0.09090909       0.33333333       0.00000000 </v>
   <v>      -0.04545455       0.33333333       0.00000000 </v>
   <v>       0.00000000       0.40000000       0.00000000 </v>
   <v>       0.04545455       0.40000000       0.00000000 </v>
   <v>       0.09090909       0.40000000       0.00000000 </v>
   <v>       0.13636364       0.40000000       0.00000000 </v>
   <v>       0.18181818       0.40000000       0.00000000 </v>
   <v>       0.22727273       0.40000000       0.00000000 </v>
   <v>       0.27272727       0.40000000       0.00000000 </v>
   <v>       0.31818182       0.40000000       0.00000000 </v>
   <v>       0.36363636       0.40000000       0.00000000 </v>
   <v>       0.40909091       0.40000000       0.00000000 </v>
   <v>       0.45454545       0.40000000       0.00000000 </v>
   <v>       0.50000000       0.40000000       0.00000000 </v>
   <v>      -0.45454545       0.40000000       0.00000000 </v>
   <v>      -0.40909091       0.40000000       0.00000000 </v>
   <v>      -0.36363636       0.40000000       0.00000000 </v>
   <v>      -0.31818182       0.40000000       0.00000000 </v>
   <v>      -0.27272727       0.40000000       0.00000000 </v>
   <v>      -0.22727273       0.40000000       0.00000000 </v>
   <v>      -0.18181818       0.40000000       0.00000000 </v>
   <v>      -0.13636364       0.40000000       0.00000000 </v>
   <v>      -0.09090909       0.40000000       0.00000000 </v>
   <v>      -0.04545455       0.40000000       0.00000000 </v>
   <v>       0.00000000       0.46666667       0.00000000 </v>
   <v>       0.04545455       0.46666667       0.00000000 </v>
   <v>       0.09090909       0.46666667       0.00000000 </v>
   <v>       0.13636364       0.46666667       0.00000000 </v>
   <v>       0.18181818       0.46666667       0.00000000 </v>
   <v>       0.22727273       0.46666667       0.00000000 </v>
   <v>       0.27272727       0.46666667       0.00000000 </v>
   <v>       0.31818182       0.46666667       0.00000000 </v>
   <v>       0.36363636       0.46666667       0.00000000 </v>
   <v>       0.40909091       0.46666667       0.00000000 </v>
   <v>       0.45454545       0.46666667       0.00000000 </v>
   <v>       0.50000000       0.46666667       0.00000000 </v>
   <v>      -0.45454545       0.46666667       0.00000000 </v>
   <v>      -0.40909091       0.46666667       0.00000000 </v>
   <v>      -0.36363636       0.46666667       0.00000000 </v>
   <v>      -0.31818182       0.46666667       0.00000000 </v>
   <v>      -0.27272727       0.46666667       0.00000000 </v>
   <v>      -0.22727273       0.46666667       0.00000000 </v>
   <v>      -0.18181818       0.46666667       0.00000000 </v>
   <v>      -0.13636364       0.46666667       0.00000000 </v>
   <v>      -0.09090909       0.46666667       0.00000000 </v>
   <v>      -0.04545455       0.46666667       0.00000000 </v>
  </varray>
  <varray name="weights" >
   <v>       0.00303030 </v>
   <v>       0.00606061 </v>
   <v>       0.00606061 </v>
   <v>       0.00606061 </v>
   <v>       0.00606061 </v>
   <v>       0.00606061 </v>
   <v>       0.00606061 </v>
   <v>       0.00606061 </v>
   <v>       0.00606061 </v>
   <v>       0.00606061 </v>
   <v>       0.00606061 </v>
   <v>       0.00303030 </v>
   <v>       0.00606061 </v>
   <v>       0.00606061 </v>
   <v>       0.00606061 </v>
   <v>       0.00606061 </v>
   <v>       0.00606061 </v>
   <v>       0.00606061 </v>
   <v>       0.00606061 </v>
   <v>       0.00606061 </v>
   <v>       0.00606061 </v>
   <v>       0.00606061 </v>
   <v>       0.00606061 </v>
   <v>       0.00606061 </v>
   <v>       0.00606061 </v>
   <v>       0.00606061 </v>
   <v>       0.00606061 </v>
   <v>       0.00606061 </v>
   <v>       0.00606061 </v>
   <v>       0.00606061 </v>
   <v>       0.00606061 </v>
   <v>       0.00606061 </v>
   <v>       0.00606061 </v>
   <v>       0.00606061 </v>
   <v>       0.00606061 </v>
   <v>       0.00606061 </v>
   <v>       0.00606061 </v>
   <v>       0.00606061 </v>
   <v>       0.00606061 </v>
   <v>       0.00606061 </v>
   <v>       0.00606061 </v>
   <v>       0.00606061 </v>
   <v>       0.00606061 </v>
   <v>       0.00606061 </v>
   <v>       0.00606061 </v>
   <v>       0.00606061 </v>
   <v>       0.00606061 </v>
   <v>       0.00606061 </v>
   <v>       0.00606061 </v>
   <v>       0.00606061 </v>
   <v>       0.00606061 </v>
   <v>       0.00606061 </v>
   <v>       0.00606061 </v>
   <v>       0.00606061 </v>
   <v>       0.00606061 </v>
   <v>       0.00606061 </v>
   <v>       0.00606061 </v>
   <v>       0.00606061 </v>
   <v>       0.00606061 </v>
   <v>       0.00606061 </v>
   <v>       0.00606061 </v>
   <v>       0.00606061 </v>
   <v>       0.00606061 </v>
   <v>       0.00606061 </v>
   <v>       0.00606061 </v>
   <v>       0.00606061 </v>
   <v>       0.00606061 </v>
   <v>       0.00606061 </v>
   <v>       0.00606061 </v>
   <v>       0.00606061 </v>
   <v>       0.00606061 </v>
   <v>       0.00606061 </v>
   <v>       0.00606061 </v>
   <v>       0.00606061 </v>
   <v>       0.00606061 </v>
   <v>       0.00606061 </v>
   <v>       0.00606061 </v>
   <v>       0.00606061 </v>
   <v>       0.00606061 </v>
   <v>       0.00606061 </v>
   <v>       0.00606061 </v>
   <v>       0.00606061 </v>
   <v>       0.00606061 </v>
   <v>       0.00606061 </v>
   <v>       0.00606061 </v>
   <v>       0.00606061 </v>
   <v>       0.00606061 </v>
   <v>       0.00606061 </v>
   <v>       0.00606061 </v>
   <v>       0.00606061 </v>
   <v>       0.00606061 </v>
   <v>       0.00606061 </v>
   <v>       0.00606061 </v>
   <v>       0.00606061 </v>
   <v>       0.00606061 </v>
   <v>       0.00606061 </v>
   <v>       0.00606061 </v>
   <v>       0.00606061 </v>
   <v>       0.00606061 </v>
   <v>       0.00606061 </v>
   <v>       0.00606061 </v>
   <v>       0.00606061 </v>
   <v>       0.00606061 </v>
   <v>       0.00606061 </v>
   <v>       0.00606061 </v>
   <v>       0.00606061 </v>
   <v>       0.00606061 </v>
   <v>       0.00606061 </v>
   <v>       0.00606061 </v>
   <v>       0.00606061 </v>
   <v>       0.00606061 </v>
   <v>       0.00606061 </v>
   <v>       0.00606061 </v>
   <v>       0.00606061 </v>
   <v>       0.00606061 </v>
   <v>       0.00606061 </v>
   <v>       0.00606061 </v>
   <v>       0.00606061 </v>
   <v>       0.00606061 </v>
   <v>       0.00606061 </v>
   <v>       0.00606061 </v>
   <v>       0.00606061 </v>
   <v>       0.00606061 </v>
   <v>       0.00606061 </v>
   <v>       0.00606061 </v>
   <v>       0.00606061 </v>
   <v>       0.00606061 </v>
   <v>       0.00606061 </v>
   <v>       0.00606061 </v>
   <v>       0.00606061 </v>
   <v>       0.00606061 </v>
   <v>       0.00606061 </v>
   <v>       0.00606061 </v>
   <v>       0.00606061 </v>
   <v>       0.00606061 </v>
   <v>       0.00606061 </v>
   <v>       0.00606061 </v>
   <v>       0.00606061 </v>
   <v>       0.00606061 </v>
   <v>       0.00606061 </v>
   <v>       0.00606061 </v>
   <v>       0.00606061 </v>
   <v>       0.00606061 </v>
   <v>       0.00606061 </v>
   <v>       0.00606061 </v>
   <v>       0.00606061 </v>
   <v>       0.00606061 </v>
   <v>       0.00606061 </v>
   <v>       0.00606061 </v>
   <v>       0.00606061 </v>
   <v>       0.00606061 </v>
   <v>       0.00606061 </v>
   <v>       0.00606061 </v>
   <v>       0.00606061 </v>
   <v>       0.00606061 </v>
   <v>       0.00606061 </v>
   <v>       0.00606061 </v>
   <v>       0.00606061 </v>
   <v>       0.00606061 </v>
   <v>       0.00606061 </v>
   <v>       0.00606061 </v>
   <v>       0.00606061 </v>
   <v>       0.00606061 </v>
   <v>       0.00606061 </v>
   <v>       0.00606061 </v>
   <v>       0.00606061 </v>
  </varray>
 </kpoints>
 <parameters>
  <separator name="general" >
   <i type="string" name="SYSTEM">unknown system</i>
   <i type="logical" name="LCOMPAT"> F  </i>
  </separator>
  <separator name="electronic" >
   <i type="string" name="PREC">a</i>
   <i name="ENMAX">    520.00000000</i>
   <i name="ENAUG">    342.92400000</i>
   <i name="EDIFF">      0.00001000</i>
   <i type="int" name="IALGO">    38</i>
   <i type="int" name="IWAVPR">    11</i>
   <i type="int" name="NBANDS">    16</i>
   <i name="NELECT">     20.00000000</i>
   <i type="int" name="TURBO">     0</i>
   <i type="int" name="IRESTART">     0</i>
   <i type="int" name="NREBOOT">     0</i>
   <i type="int" name="NMIN">     0</i>
   <i name="EREF">      0.00000000</i>
   <separator name="electronic smearing" >
    <i type="int" name="ISMEAR">     0</i>
    <i name="SIGMA">      0.02000000</i>
    <i name="KSPACING">      0.50000000</i>
    <i type="logical" name="KGAMMA"> T  </i>
   </separator>
   <separator name="electronic projectors" >
    <i type="logical" name="LREAL"> F  </i>
    <v name="ROPT">      0.00000000</v>
    <i type="int" name="LMAXPAW">  -100</i>
    <i type="int" name="LMAXMIX">     2</i>
    <i type="logical" name="NLSPLINE"> F  </i>
   </separator>
   <separator name="electronic startup" >
    <i type="int" name="ISTART">     0</i>
    <i type="int" name="ICHARG">     2</i>
    <i type="int" name="INIWAV">     1</i>
   </separator>
   <separator name="electronic spin" >
    <i type="int" name="ISPIN">     1</i>
    <i type="logical" name="LNONCOLLINEAR"> F  </i>
    <v name="MAGMOM">      1.00000000      1.00000000      1.00000000      1.00000000</v>
    <i name="NUPDOWN">     -1.00000000</i>
    <i type="logical" name="LSORBIT"> F  </i>
    <v name="SAXIS">      0.00000000      0.00000000      1.00000000</v>
    <i type="logical" name="LSPIRAL"> F  </i>
    <v name="QSPIRAL">      0.00000000      0.00000000      0.00000000</v>
    <i type="logical" name="LZEROZ"> F  </i>
   </separator>
   <separator name="electronic exchange-correlation" >
    <i type="logical" name="LASPH"> F  </i>
    <i type="logical" name="LMETAGGA"> F  </i>
   </separator>
   <separator name="electronic convergence" >
    <i type="int" name="NELM">   250</i>
    <i type="int" name="NELMDL">    -5</i>
    <i type="int" name="NELMIN">     6</i>
    <i name="ENINI">    520.00000000</i>
    <separator name="electronic convergence detail" >
     <i type="logical" name="LDIAG"> T  </i>
     <i type="logical" name="LSUBROT"> F  </i>
     <i name="WEIMIN">      0.00100000</i>
     <i name="EBREAK">      0.00000016</i>
     <i name="DEPER">      0.30000000</i>
     <i type="int" name="NRMM">     4</i>
     <i name="TIME">      0.40000000</i>
    </separator>
   </separator>
   <separator name="electronic mixer" >
    <i name="AMIX">      0.40000000</i>
    <i name="BMIX">      1.00000000</i>
    <i name="AMIN">      0.10000000</i>
    <i name="AMIX_MAG">      1.60000000</i>
    <i name="BMIX_MAG">      1.00000000</i>
    <separator name="electronic mixer details" >
     <i type="int" name="IMIX">     4</i>
     <i type="logical" name="MIXFIRST"> F  </i>
     <i type="int" name="MAXMIX">   -45</i>
     <i name="WC">    100.00000000</i>
     <i type="int" name="INIMIX">     1</i>
     <i type="int" name="MIXPRE">     1</i>
     <i type="int" name="MREMOVE">     5</i>
    </separator>
   </separator>
   <separator name="electronic dipolcorrection" >
    <i type="logical" name="LDIPOL"> F  </i>
    <i type="logical" name="LMONO"> F  </i>
    <i type="int" name="IDIPOL">     0</i>
    <i name="EPSILON">      1.00000000</i>
    <v name="DIPOL">   -100.00000000   -100.00000000   -100.00000000</v>
    <i name="EFIELD">      0.00000000</i>
   </separator>
  </separator>
  <separator name="grids" >
   <i type="int" name="NGX">    28</i>
   <i type="int" name="NGY">    36</i>
   <i type="int" name="NGZ">   150</i>
   <i type="int" name="NGXF">    56</i>
   <i type="int" name="NGYF">    72</i>
   <i type="int" name="NGZF">   300</i>
   <i type="logical" name="ADDGRID"> F  </i>
  </separator>
  <separator name="ionic" >
   <i type="int" name="NSW">   200</i>
   <i type="int" name="IBRION">     2</i>
   <i type="int" name="ISIF">     2</i>
   <i name="PSTRESS">      0.00000000</i>
   <i name="EDIFFG">     -0.01000000</i>
   <i type="int" name="NFREE">     1</i>
   <i name="POTIM">      0.30000000</i>
   <i name="SMASS">     -3.00000000</i>
   <i name="SCALEE">      1.00000000</i>
  </separator>
  <separator name="ionic md" >
   <i name="TEBEG">      0.00010000</i>
   <i name="TEEND">      0.00010000</i>
   <i type="int" name="NBLOCK">     1</i>
   <i type="int" name="KBLOCK">   200</i>
   <i type="int" name="NPACO">   256</i>
   <i name="APACO">     16.00000000</i>
  </separator>
  <separator name="symmetry" >
   <i type="int" name="ISYM">     2</i>
   <i name="SYMPREC">      0.00001000</i>
  </separator>
  <separator name="dos" >
   <i type="logical" name="LORBIT"> F  </i>
   <v name="RWIGS">     -1.00000000</v>
   <i type="int" name="NEDOS">   301</i>
   <i name="EMIN">     10.00000000</i>
   <i name="EMAX">    -10.00000000</i>
   <i name="EFERMI">      0.00000000</i>
  </separator>
  <separator name="writing" >
   <i type="int" name="NWRITE">     2</i>
   <i type="logical" name="LWAVE"> F  </i>
   <i type="logical" name="LCHARG"> F  </i>
   <i type="logical" name="LPARD"> F  </i>
   <i type="logical" name="LVTOT"> F  </i>
   <i type="logical" name="LVHAR"> F  </i>
   <i type="logical" name="LELF"> F  </i>
   <i type="logical" name="LOPTICS"> F  </i>
   <v name="STM">      0.00000000      0.00000000      0.00000000      0.00000000      0.00000000      0.00000000      0.00000000</v>
  </separator>
  <separator name="performance" >
   <i type="int" name="NPAR">     4</i>
   <i type="int" name="NSIM">     4</i>
   <i type="int" name="NBLK">    -1</i>
   <i type="logical" name="LPLANE"> T  </i>
   <i type="logical" name="LSCALAPACK"> T  </i>
   <i type="logical" name="LSCAAWARE"> F  </i>
   <i type="logical" name="LSCALU"> F  </i>
   <i type="logical" name="LASYNC"> F  </i>
   <i type="logical" name="LORBITALREAL"> F  </i>
  </separator>
  <separator name="miscellaneous" >
   <i type="int" name="IDIOT">     3</i>
   <i type="logical" name="LMUSIC"> F  </i>
   <v name="POMASS">     30.97400000</v>
   <v name="DARWINR">      0.00000000</v>
   <v name="DARWINV">      1.00000000</v>
   <i type="logical" name="LCORR"> T  </i>
  </separator>
  <i type="logical" name="GGA_COMPAT"> T  </i>
  <i type="logical" name="LBERRY"> F  </i>
  <i type="int" name="ICORELEVEL">     0</i>
  <i type="logical" name="LDAU"> F  </i>
  <i type="int" name="I_CONSTRAINED_M">     0</i>
  <separator name="electronic exchange-correlation" >
   <i type="string" name="GGA">--</i>
   <i type="int" name="VOSKOWN">     0</i>
   <i type="logical" name="LHFCALC"> F  </i>
   <i type="string" name="PRECFOCK"></i>
   <i type="logical" name="LSYMGRAD"> F  </i>
   <i type="logical" name="LHFONE"> F  </i>
   <i type="logical" name="LRHFCALC"> F  </i>
   <i type="logical" name="LTHOMAS"> F  </i>
   <i type="logical" name="LMODELHF"> F  </i>
   <i name="ENCUT4O">     -1.00000000</i>
   <i type="int" name="EXXOEP">     0</i>
   <i type="int" name="FOURORBIT">     0</i>
   <i name="AEXX">      0.00000000</i>
   <i name="HFALPHA">      0.00000000</i>
   <i name="MCALPHA">      0.00000000</i>
   <i name="ALDAX">      1.00000000</i>
   <i name="AGGAX">      1.00000000</i>
   <i name="ALDAC">      1.00000000</i>
   <i name="AGGAC">      1.00000000</i>
   <i type="int" name="NKREDX">     1</i>
   <i type="int" name="NKREDY">     1</i>
   <i type="int" name="NKREDZ">     1</i>
   <i type="logical" name="SHIFTRED"> F  </i>
   <i type="logical" name="ODDONLY"> F  </i>
   <i type="logical" name="EVENONLY"> F  </i>
   <i type="int" name="LMAXFOCK">     0</i>
   <i type="int" name="NMAXFOCKAE">     0</i>
   <i type="logical" name="LFOCKAEDFT"> F  </i>
   <i name="HFSCREEN">      0.00000000</i>
   <i name="HFSCREENC">      0.00000000</i>
   <i type="int" name="NBANDSGWLOW">     0</i>
  </separator>
  <separator name="vdW DFT" >
   <i type="logical" name="LUSE_VDW"> F  </i>
   <i name="Zab_VDW">     -0.84910000</i>
   <i name="PARAM1">      0.12340000</i>
   <i name="PARAM2">      1.00000000</i>
   <i name="PARAM3">      0.00000000</i>
  </separator>
  <separator name="model GW" >
   <i type="int" name="MODEL_GW">     0</i>
   <i name="MODEL_EPS0">     47.14179916</i>
   <i name="MODEL_ALPHA">      1.00000000</i>
  </separator>
  <separator name="linear response parameters" >
   <i type="logical" name="LEPSILON"> F  </i>
   <i type="logical" name="LRPA"> F  </i>
   <i type="logical" name="LNABLA"> F  </i>
   <i type="logical" name="LVEL"> F  </i>
   <i type="int" name="KINTER">     0</i>
   <i name="CSHIFT">      0.10000000</i>
   <i name="OMEGAMAX">     -1.00000000</i>
   <i name="DEG_THRESHOLD">      0.00200000</i>
  </separator>
  <separator name="orbital magnetization" >
   <i type="logical" name="NUCIND"> F  </i>
   <v name="MAGPOS">      0.00000000      0.00000000      0.00000000</v>
   <i type="logical" name="LNICSALL"> T  </i>
   <i type="logical" name="ORBITALMAG"> F  </i>
   <i type="logical" name="LMAGBLOCH"> F  </i>
   <i type="logical" name="LCHIMAG"> F  </i>
   <i type="logical" name="LGAUGE"> T  </i>
   <i type="int" name="MAGATOM">     0</i>
   <v name="MAGDIPOL">      0.00000000      0.00000000      0.00000000</v>
   <v name="AVECCONST">      0.00000000      0.00000000      0.00000000</v>
  </separator>
  <separator name="response functions" >
   <i type="logical" name="LADDER"> F  </i>
   <i type="logical" name="LFXC"> F  </i>
   <i type="logical" name="LHARTREE"> T  </i>
   <i type="int" name="IBSE">     0</i>
   <v type="int" name="KPOINT">    -1     0     0     0</v>
   <i type="logical" name="LTCTE"> F  </i>
   <i type="logical" name="LTETE"> F  </i>
   <i type="logical" name="LTRIPLET"> F  </i>
   <i type="logical" name="LFXCEPS"> F  </i>
   <i type="logical" name="LFXHEG"> F  </i>
   <i type="int" name="NATURALO">     0</i>
   <i type="logical" name="L2ORDER"> F  </i>
   <i type="logical" name="LUSEW"> F  </i>
   <i name="ENCUTGW">     -2.00000000</i>
   <i name="ENCUTGWSOFT">     -2.00000000</i>
   <i name="ENCUTLF">     -1.00000000</i>
   <i type="int" name="LMAXMP2">    -1</i>
   <i name="SCISSOR">      0.00000000</i>
   <i type="int" name="NOMEGA">     0</i>
   <i type="int" name="NOMEGAR">     0</i>
   <i type="int" name="NBANDSGW">    -1</i>
   <i type="int" name="NBANDSO">    -1</i>
   <i type="int" name="NBANDSV">    -1</i>
   <i type="int" name="NELM">   250</i>
   <i type="int" name="NELMHF">     1</i>
   <i type="int" name="DIM">     3</i>
   <i type="int" name="ANTIRES">     0</i>
   <i name="OMEGAMAX">    -30.00000000</i>
   <i name="OMEGAMIN">    -30.00000000</i>
   <i name="OMEGATL">   -200.00000000</i>
   <i type="int" name="OMEGAGRID">     0</i>
   <i name="CSHIFT">     -0.10000000</i>
   <i type="logical" name="SELFENERGY"> F  </i>
   <i type="logical" name="LSPECTRAL"> F  </i>
   <i type="logical" name="LSPECTRALGW"> F  </i>
   <i type="logical" name="LSINGLES"> F  </i>
   <i type="logical" name="LFERMIGW"> F  </i>
   <i type="logical" name="ODDONLYGW"> F  </i>
   <i type="logical" name="EVENONLYGW"> F  </i>
   <i type="int" name="NKREDLFX">     1</i>
   <i type="int" name="NKREDLFY">     1</i>
   <i type="int" name="NKREDLFZ">     1</i>
   <i type="int" name="MAXMEM">  1800</i>
   <i type="int" name="TELESCOPE">     0</i>
   <i type="int" name="TAUPAR">     1</i>
   <i type="int" name="OMEGAPAR">    -1</i>
   <i name="LAMBDA">      1.00000000</i>
  </separator>
  <separator name="External order field" >
   <i name="OFIELD_KAPPA">      0.00000000</i>
   <v name="OFIELD_K">      0.00000000      0.00000000      0.00000000</v>
   <i name="OFIELD_Q6_NEAR">      0.00000000</i>
   <i name="OFIELD_Q6_FAR">      0.00000000</i>
   <i name="OFIELD_A">      0.00000000</i>
  </separator>
 </parameters>
 <atominfo>
  <atoms>       4 </atoms>
  <types>       1 </types>
  <array name="atoms" >
   <dimension dim="1">ion</dimension>
   <field type="string">element</field>
   <field type="int">atomtype</field>
   <set>
    <rc><c>P </c><c>   1</c></rc>
    <rc><c>P </c><c>   1</c></rc>
    <rc><c>P </c><c>   1</c></rc>
    <rc><c>P </c><c>   1</c></rc>
   </set>
  </array>
  <array name="atomtypes" >
   <dimension dim="1">type</dimension>
   <field type="int">atomspertype</field>
   <field type="string">element</field>
   <field>mass</field>
   <field>valence</field>
   <field type="string">pseudopotential</field>
   <set>
    <rc><c>   4</c><c>P </c><c>     30.97400000</c><c>      5.00000000</c><c>  PAW_PBE P 06Sep2000                   </c></rc>
   </set>
  </array>
 </atominfo>
 <structure name="initialpos" >
  <crystal>
   <varray name="basis" >
    <v>       3.29720400       0.00000000       0.00000000 </v>
    <v>       0.00000000       4.76003100      -0.00005300 </v>
    <v>       0.00000000       0.00000000      20.02439000 </v>
   </varray>
   <i name="volume">    314.27866107 </i>
   <varray name="rec_basis" >
    <v>       0.30328727       0.00000000       0.00000000 </v>
    <v>       0.00000000       0.21008267       0.00000000 </v>
    <v>       0.00000000       0.00000056       0.04993910 </v>
   </varray>
  </crystal>
  <varray name="positions" >
   <v>       0.50000000       0.91077300       0.55252100 </v>
   <v>       0.50000000       0.08922700       0.44747900 </v>
   <v>       0.00000000       0.41076900       0.44747900 </v>
   <v>       0.00000000       0.58923100       0.55252100 </v>
  </varray>
 </structure>
 <calculation>
  <scstep>
   <time name="dav">    1.58    1.58</time>
   <time name="total">    1.61    1.61</time>
   <energy>
    <i name="alphaZ">      5.10426331 </i>
    <i name="ewald">   1796.35377334 </i>
    <i name="hartreedc">  -2390.44704801 </i>
    <i name="XCdc">     12.78179015 </i>
    <i name="pawpsdc">    559.04011960 </i>
    <i name="pawaedc">   -526.39432044 </i>
    <i name="eentropy">     -0.00012691 </i>
    <i name="bandstr">    -28.60338838 </i>
    <i name="atom">    704.16778566 </i>
    <i name="e_fr_energy">    132.00284833 </i>
    <i name="e_wo_entrp">    132.00297524 </i>
    <i name="e_0_energy">    132.00291178 </i>
   </energy>
  </scstep>
  <scstep>
   <time name="dav">    2.12    2.12</time>
   <time name="total">    2.12    2.12</time>
   <energy>
    <i name="e_fr_energy">     -6.15230275 </i>
    <i name="e_wo_entrp">     -6.15218434 </i>
    <i name="e_0_energy">     -6.15224355 </i>
   </energy>
  </scstep>
  <scstep>
   <time name="dav">    1.96    1.96</time>
   <time name="total">    1.96    1.96</time>
   <energy>
    <i name="e_fr_energy">    -21.30399814 </i>
    <i name="e_wo_entrp">    -21.30399814 </i>
    <i name="e_0_energy">    -21.30399814 </i>
   </energy>
  </scstep>
  <scstep>
   <time name="dav">    1.95    1.95</time>
   <time name="total">    1.95    1.95</time>
   <energy>
    <i name="e_fr_energy">    -21.61630737 </i>
    <i name="e_wo_entrp">    -21.61630737 </i>
    <i name="e_0_energy">    -21.61630737 </i>
   </energy>
  </scstep>
  <scstep>
   <time name="dav">    2.09    2.09</time>
   <time name="total">    2.19    2.19</time>
   <energy>
    <i name="e_fr_energy">    -21.62583510 </i>
    <i name="e_wo_entrp">    -21.62583510 </i>
    <i name="e_0_energy">    -21.62583510 </i>
   </energy>
  </scstep>
  <scstep>
   <time name="dav">    1.90    1.90</time>
   <time name="total">    2.02    2.02</time>
   <energy>
    <i name="e_fr_energy">    -21.49275007 </i>
    <i name="e_wo_entrp">    -21.49275007 </i>
    <i name="e_0_energy">    -21.49275007 </i>
   </energy>
  </scstep>
  <scstep>
   <time name="dav">    1.85    1.85</time>
   <time name="total">    1.97    1.97</time>
   <energy>
    <i name="e_fr_energy">    -21.42967504 </i>
    <i name="e_wo_entrp">    -21.42967504 </i>
    <i name="e_0_energy">    -21.42967504 </i>
   </energy>
  </scstep>
  <scstep>
   <time name="dav">    1.91    1.91</time>
   <time name="total">    2.03    2.03</time>
   <energy>
    <i name="e_fr_energy">    -21.42922410 </i>
    <i name="e_wo_entrp">    -21.42922410 </i>
    <i name="e_0_energy">    -21.42922410 </i>
   </energy>
  </scstep>
  <scstep>
   <time name="dav">    2.23    2.23</time>
   <time name="total">    2.35    2.35</time>
   <energy>
    <i name="e_fr_energy">    -21.42910298 </i>
    <i name="e_wo_entrp">    -21.42910298 </i>
    <i name="e_0_energy">    -21.42910298 </i>
   </energy>
  </scstep>
  <scstep>
   <time name="dav">    1.90    1.90</time>
   <time name="total">    2.02    2.02</time>
   <energy>
    <i name="e_fr_energy">    -21.42894593 </i>
    <i name="e_wo_entrp">    -21.42894593 </i>
    <i name="e_0_energy">    -21.42894593 </i>
   </energy>
  </scstep>
  <scstep>
   <time name="dav">    1.92    1.92</time>
   <time name="total">    2.04    2.04</time>
   <energy>
    <i name="e_fr_energy">    -21.42888280 </i>
    <i name="e_wo_entrp">    -21.42888280 </i>
    <i name="e_0_energy">    -21.42888280 </i>
   </energy>
  </scstep>
  <scstep>
   <time name="dav">    1.69    1.69</time>
   <time name="total">    1.81    1.81</time>
   <energy>
    <i name="e_fr_energy">    -21.42920363 </i>
    <i name="e_wo_entrp">    -21.42920363 </i>
    <i name="e_0_energy">    -21.42920363 </i>
   </energy>
  </scstep>
  <scstep>
   <time name="dav">    1.70    1.70</time>
   <time name="total">    1.82    1.82</time>
   <energy>
    <i name="e_fr_energy">    -21.42930652 </i>
    <i name="e_wo_entrp">    -21.42930652 </i>
    <i name="e_0_energy">    -21.42930652 </i>
   </energy>
  </scstep>
  <scstep>
   <time name="dav">    1.59    1.59</time>
   <time name="total">    1.71    1.71</time>
   <energy>
    <i name="e_fr_energy">    -21.42945450 </i>
    <i name="e_wo_entrp">    -21.42945450 </i>
    <i name="e_0_energy">    -21.42945450 </i>
   </energy>
  </scstep>
  <scstep>
   <time name="dav">    1.63    1.63</time>
   <time name="total">    1.75    1.75</time>
   <energy>
    <i name="e_fr_energy">    -21.42947577 </i>
    <i name="e_wo_entrp">    -21.42947577 </i>
    <i name="e_0_energy">    -21.42947577 </i>
   </energy>
  </scstep>
  <scstep>
   <time name="dav">    1.53    1.53</time>
   <time name="total">    1.65    1.65</time>
   <energy>
    <i name="e_fr_energy">    -21.42950895 </i>
    <i name="e_wo_entrp">    -21.42950895 </i>
    <i name="e_0_energy">    -21.42950895 </i>
   </energy>
  </scstep>
  <scstep>
   <time name="dav">    1.59    1.59</time>
   <time name="total">    1.61    1.61</time>
   <energy>
    <i name="alphaZ">      5.10426331 </i>
    <i name="ewald">   1796.35377334 </i>
    <i name="hartreedc">  -2404.85358380 </i>
    <i name="XCdc">     13.80792119 </i>
    <i name="pawpsdc">   1983.71582774 </i>
    <i name="pawaedc">  -1951.36650969 </i>
    <i name="eentropy">     -0.00000000 </i>
    <i name="bandstr">   -168.35898975 </i>
    <i name="atom">    704.16778566 </i>
    <i name="e_fr_energy">    -21.42951200 </i>
    <i name="e_wo_entrp">    -21.42951200 </i>
    <i name="e_0_energy">    -21.42951200 </i>
   </energy>
  </scstep>
  <structure>
   <crystal>
    <varray name="basis" >
     <v>       3.29720400       0.00000000       0.00000000 </v>
     <v>       0.00000000       4.76003100      -0.00005300 </v>
     <v>       0.00000000       0.00000000      20.02439000 </v>
    </varray>
    <i name="volume">    314.27866107 </i>
    <varray name="rec_basis" >
     <v>       0.30328727       0.00000000       0.00000000 </v>
     <v>       0.00000000       0.21008267       0.00000000 </v>
     <v>       0.00000000       0.00000056       0.04993910 </v>
    </varray>
   </crystal>
   <varray name="positions" >
    <v>       0.50000000       0.91077300       0.55252100 </v>
    <v>       0.50000000       0.08922700       0.44747900 </v>
    <v>       0.00000000       0.41076900       0.44747900 </v>
    <v>       0.00000000       0.58923100       0.55252100 </v>
   </varray>
  </structure>
  <varray name="forces" >
   <v>       0.00000001      -0.40430796      -0.07820669 </v>
   <v>      -0.00000001       0.40430796       0.07820669 </v>
   <v>      -0.00000002      -0.40433060       0.07821846 </v>
   <v>       0.00000002       0.40433060      -0.07821846 </v>
  </varray>
  <varray name="stress" >
   <v>      -3.81938507       0.00000315       0.00000009 </v>
   <v>       0.00000320      -9.92016504       0.00035271 </v>
   <v>       0.00000006       0.00035273      -1.74130609 </v>
  </varray>
  <energy>
   <i name="e_fr_energy">    -21.42951200 </i>
   <i name="e_wo_entrp">    -21.42951200 </i>
   <i name="e_0_energy">     -0.00000000 </i>
  </energy>
  <time name="totalsc">   33.42   33.46</time>
 </calculation>
 <calculation>
  <scstep>
   <time name="dav">    1.67    1.67</time>
   <time name="total">    1.79    1.79</time>
   <energy>
    <i name="alphaZ">      5.10426331 </i>
    <i name="ewald">   1800.14222730 </i>
    <i name="hartreedc">  -2407.98914213 </i>
    <i name="XCdc">     13.87644131 </i>
    <i name="pawpsdc">   1983.35583973 </i>
    <i name="pawaedc">  -1951.00655002 </i>
    <i name="eentropy">     -0.00000000 </i>
    <i name="bandstr">   -169.09274822 </i>
    <i name="atom">    704.16778566 </i>
    <i name="e_fr_energy">    -21.44188305 </i>
    <i name="e_wo_entrp">    -21.44188305 </i>
    <i name="e_0_energy">    -21.44188305 </i>
   </energy>
  </scstep>
  <scstep>
   <time name="dav">    1.97    1.97</time>
   <time name="total">    2.09    2.09</time>
   <energy>
    <i name="e_fr_energy">    -21.44374298 </i>
    <i name="e_wo_entrp">    -21.44374298 </i>
    <i name="e_0_energy">    -21.44374298 </i>
   </energy>
  </scstep>
  <scstep>
   <time name="dav">    2.12    2.12</time>
   <time name="total">    2.24    2.24</time>
   <energy>
    <i name="e_fr_energy">    -21.44372916 </i>
    <i name="e_wo_entrp">    -21.44372916 </i>
    <i name="e_0_energy">    -21.44372916 </i>
   </energy>
  </scstep>
  <scstep>
   <time name="dav">    1.93    1.93</time>
   <time name="total">    2.04    2.04</time>
   <energy>
    <i name="e_fr_energy">    -21.44372686 </i>
    <i name="e_wo_entrp">    -21.44372686 </i>
    <i name="e_0_energy">    -21.44372686 </i>
   </energy>
  </scstep>
  <scstep>
   <time name="dav">    1.57    1.57</time>
   <time name="total">    1.68    1.69</time>
   <energy>
    <i name="e_fr_energy">    -21.44372779 </i>
    <i name="e_wo_entrp">    -21.44372779 </i>
    <i name="e_0_energy">    -21.44372779 </i>
   </energy>
  </scstep>
  <scstep>
   <time name="dav">    1.34    1.34</time>
   <time name="total">    1.36    1.36</time>
   <energy>
    <i name="alphaZ">      5.10426331 </i>
    <i name="ewald">   1800.14222730 </i>
    <i name="hartreedc">  -2408.01067262 </i>
    <i name="XCdc">     13.88410638 </i>
    <i name="pawpsdc">   2025.80943483 </i>
    <i name="pawaedc">  -1993.47577381 </i>
    <i name="eentropy">     -0.00000000 </i>
    <i name="bandstr">   -169.06509958 </i>
    <i name="atom">    704.16778566 </i>
    <i name="e_fr_energy">    -21.44372851 </i>
    <i name="e_wo_entrp">    -21.44372851 </i>
    <i name="e_0_energy">    -21.44372851 </i>
   </energy>
  </scstep>
  <structure>
   <crystal>
    <varray name="basis" >
     <v>       3.29720400       0.00000000       0.00000000 </v>
     <v>       0.00000000       4.76003100      -0.00005300 </v>
     <v>       0.00000000       0.00000000      20.02439000 </v>
    </varray>
    <i name="volume">    314.27866107 </i>
    <varray name="rec_basis" >
     <v>       0.30328727       0.00000000       0.00000000 </v>
     <v>       0.00000000       0.21008267       0.00000000 </v>
     <v>       0.00000000       0.00000056       0.04993910 </v>
    </varray>
   </crystal>
   <varray name="positions" >
    <v>       0.50000000       0.90831442       0.55240794 </v>
    <v>       0.50000000       0.09168558       0.44759206 </v>
    <v>      -0.00000000       0.40831028       0.44759206 </v>
    <v>       0.00000000       0.59168972       0.55240794 </v>
   </varray>
  </structure>
  <varray name="forces" >
   <v>       0.00000005      -0.16890966      -0.08045861 </v>
   <v>      -0.00000005       0.16890966       0.08045861 </v>
   <v>      -0.00000004      -0.16892826       0.08046232 </v>
   <v>       0.00000004       0.16892826      -0.08046232 </v>
  </varray>
  <varray name="stress" >
   <v>      -2.97345856       0.00000059      -0.00000041 </v>
   <v>       0.00000062      -6.43633744       0.00027281 </v>
   <v>      -0.00000040       0.00027283      -1.84205772 </v>
  </varray>
  <energy>
   <i name="e_fr_energy">    -21.44372851 </i>
   <i name="e_wo_entrp">    -21.44372851 </i>
   <i name="e_0_energy">     -0.00000000 </i>
  </energy>
  <time name="totalsc">   12.02   12.04</time>
 </calculation>
 <calculation>
  <scstep>
   <time name="dav">    1.67    1.67</time>
   <time name="total">    1.79    1.79</time>
   <energy>
    <i name="alphaZ">      5.10426331 </i>
    <i name="ewald">   1802.93179580 </i>
    <i name="hartreedc">  -2410.28589572 </i>
    <i name="XCdc">     13.93422729 </i>
    <i name="pawpsdc">   2026.01934100 </i>
    <i name="pawaedc">  -1993.68553125 </i>
    <i name="eentropy">     -0.00000000 </i>
    <i name="bandstr">   -169.63200936 </i>
    <i name="atom">    704.16778566 </i>
    <i name="e_fr_energy">    -21.44602328 </i>
    <i name="e_wo_entrp">    -21.44602328 </i>
    <i name="e_0_energy">    -21.44602328 </i>
   </energy>
  </scstep>
  <scstep>
   <time name="dav">    1.99    2.00</time>
   <time name="total">    2.11    2.11</time>
   <energy>
    <i name="e_fr_energy">    -21.44702769 </i>
    <i name="e_wo_entrp">    -21.44702769 </i>
    <i name="e_0_energy">    -21.44702769 </i>
   </energy>
  </scstep>
  <scstep>
   <time name="dav">    2.13    2.13</time>
   <time name="total">    2.25    2.25</time>
   <energy>
    <i name="e_fr_energy">    -21.44702021 </i>
    <i name="e_wo_entrp">    -21.44702021 </i>
    <i name="e_0_energy">    -21.44702021 </i>
   </energy>
  </scstep>
  <scstep>
   <time name="dav">    1.88    1.88</time>
   <time name="total">    1.99    1.99</time>
   <energy>
    <i name="e_fr_energy">    -21.44702026 </i>
    <i name="e_wo_entrp">    -21.44702026 </i>
    <i name="e_0_energy">    -21.44702026 </i>
   </energy>
  </scstep>
  <scstep>
   <time name="dav">    1.37    1.37</time>
   <time name="total">    1.49    1.49</time>
   <energy>
    <i name="e_fr_energy">    -21.44702070 </i>
    <i name="e_wo_entrp">    -21.44702070 </i>
    <i name="e_0_energy">    -21.44702070 </i>
   </energy>
  </scstep>
  <scstep>
   <time name="dav">    1.29    1.29</time>
   <time name="total">    1.31    1.32</time>
   <energy>
    <i name="alphaZ">      5.10426331 </i>
    <i name="ewald">   1802.93179580 </i>
    <i name="hartreedc">  -2410.29248345 </i>
    <i name="XCdc">     13.93986302 </i>
    <i name="pawpsdc">   2058.03428138 </i>
    <i name="pawaedc">  -2025.71228865 </i>
    <i name="eentropy">     -0.00000000 </i>
    <i name="bandstr">   -169.62023852 </i>
    <i name="atom">    704.16778566 </i>
    <i name="e_fr_energy">    -21.44702144 </i>
    <i name="e_wo_entrp">    -21.44702144 </i>
    <i name="e_0_energy">    -21.44702144 </i>
   </energy>
  </scstep>
  <structure>
   <crystal>
    <varray name="basis" >
     <v>       3.29720400       0.00000000       0.00000000 </v>
     <v>       0.00000000       4.76003100      -0.00005300 </v>
     <v>       0.00000000       0.00000000      20.02439000 </v>
    </varray>
    <i name="volume">    314.27866107 </i>
    <varray name="rec_basis" >
     <v>       0.30328727       0.00000000       0.00000000 </v>
     <v>       0.00000000       0.21008267       0.00000000 </v>
     <v>       0.00000000       0.00000056       0.04993910 </v>
    </varray>
   </crystal>
   <varray name="positions" >
    <v>       0.50000000       0.90652042       0.55232545 </v>
    <v>       0.50000000       0.09347958       0.44767455 </v>
    <v>      -0.00000000       0.40651618       0.44767456 </v>
    <v>       0.00000000       0.59348382       0.55232544 </v>
   </varray>
  </structure>
  <varray name="forces" >
   <v>       0.00000002       0.01051990      -0.08332703 </v>
   <v>      -0.00000002      -0.01051990       0.08332703 </v>
   <v>      -0.00000004       0.01050415       0.08332493 </v>
   <v>       0.00000004      -0.01050415      -0.08332493 </v>
  </varray>
  <varray name="stress" >
   <v>      -2.23209132       0.00000009       0.00000005 </v>
   <v>       0.00000003      -3.83923552       0.00021178 </v>
   <v>       0.00000004       0.00021175      -1.89093068 </v>
  </varray>
  <energy>
   <i name="e_fr_energy">    -21.44702144 </i>
   <i name="e_wo_entrp">    -21.44702144 </i>
   <i name="e_0_energy">     -0.00000000 </i>
  </energy>
  <time name="totalsc">   11.76   11.78</time>
 </calculation>
 <calculation>
  <scstep>
   <time name="dav">    1.70    1.70</time>
   <time name="total">    1.82    1.82</time>
   <energy>
    <i name="alphaZ">      5.10426331 </i>
    <i name="ewald">   1803.01957359 </i>
    <i name="hartreedc">  -2410.35323736 </i>
    <i name="XCdc">     13.94131275 </i>
    <i name="pawpsdc">   2058.22566673 </i>
    <i name="pawaedc">  -2025.90359158 </i>
    <i name="eentropy">     -0.00000000 </i>
    <i name="bandstr">   -169.64879824 </i>
    <i name="atom">    704.16778566 </i>
    <i name="e_fr_energy">    -21.44702514 </i>
    <i name="e_wo_entrp">    -21.44702514 </i>
    <i name="e_0_energy">    -21.44702514 </i>
   </energy>
  </scstep>
  <scstep>
   <time name="dav">    1.46    1.46</time>
   <time name="total">    1.57    1.58</time>
   <energy>
    <i name="e_fr_energy">    -21.44702684 </i>
    <i name="e_wo_entrp">    -21.44702684 </i>
    <i name="e_0_energy">    -21.44702684 </i>
   </energy>
  </scstep>
  <scstep>
   <time name="dav">    1.27    1.27</time>
   <time name="total">    1.38    1.39</time>
   <energy>
    <i name="e_fr_energy">    -21.44702783 </i>
    <i name="e_wo_entrp">    -21.44702783 </i>
    <i name="e_0_energy">    -21.44702783 </i>
   </energy>
  </scstep>
  <scstep>
   <time name="dav">    1.37    1.37</time>
   <time name="total">    1.48    1.48</time>
   <energy>
    <i name="e_fr_energy">    -21.44702881 </i>
    <i name="e_wo_entrp">    -21.44702881 </i>
    <i name="e_0_energy">    -21.44702881 </i>
   </energy>
  </scstep>
  <scstep>
   <time name="dav">    1.36    1.36</time>
   <time name="total">    1.48    1.48</time>
   <energy>
    <i name="e_fr_energy">    -21.44702977 </i>
    <i name="e_wo_entrp">    -21.44702977 </i>
    <i name="e_0_energy">    -21.44702977 </i>
   </energy>
  </scstep>
  <scstep>
   <time name="dav">    1.33    1.33</time>
   <time name="total">    1.35    1.35</time>
   <energy>
    <i name="alphaZ">      5.10426331 </i>
    <i name="ewald">   1803.01957359 </i>
    <i name="hartreedc">  -2410.33567311 </i>
    <i name="XCdc">     13.94129914 </i>
    <i name="pawpsdc">   2059.24403407 </i>
    <i name="pawaedc">  -2026.92231821 </i>
    <i name="eentropy">     -0.00000000 </i>
    <i name="bandstr">   -169.66599473 </i>
    <i name="atom">    704.16778566 </i>
    <i name="e_fr_energy">    -21.44703027 </i>
    <i name="e_wo_entrp">    -21.44703027 </i>
    <i name="e_0_energy">    -21.44703027 </i>
   </energy>
  </scstep>
  <structure>
   <crystal>
    <varray name="basis" >
     <v>       3.29720400       0.00000000       0.00000000 </v>
     <v>       0.00000000       4.76003100      -0.00005300 </v>
     <v>       0.00000000       0.00000000      20.02439000 </v>
    </varray>
    <i name="volume">    314.27866107 </i>
    <varray name="rec_basis" >
     <v>       0.30328727       0.00000000       0.00000000 </v>
     <v>       0.00000000       0.21008267       0.00000000 </v>
     <v>       0.00000000       0.00000056       0.04993910 </v>
    </varray>
   </crystal>
   <varray name="positions" >
    <v>       0.50000000       0.90646419       0.55232286 </v>
    <v>       0.50000000       0.09353581       0.44767714 </v>
    <v>      -0.00000000       0.40645995       0.44767714 </v>
    <v>       0.00000000       0.59354005       0.55232286 </v>
   </varray>
  </structure>
  <varray name="forces" >
   <v>      -0.00000000       0.01594161      -0.08339167 </v>
   <v>       0.00000000      -0.01594161       0.08339167 </v>
   <v>       0.00000000       0.01592598       0.08338936 </v>
   <v>      -0.00000000      -0.01592598      -0.08338936 </v>
  </varray>
  <varray name="stress" >
   <v>      -2.21368032      -0.00000000      -0.00000006 </v>
   <v>      -0.00000004      -3.74819058       0.00020937 </v>
   <v>      -0.00000003       0.00020935      -1.85591874 </v>
  </varray>
  <energy>
   <i name="e_fr_energy">    -21.44703027 </i>
   <i name="e_wo_entrp">    -21.44703027 </i>
   <i name="e_0_energy">     -0.00000000 </i>
  </energy>
  <time name="totalsc">    9.90    9.92</time>
 </calculation>
 <calculation>
  <scstep>
   <time name="dav">    1.54    1.54</time>
   <time name="total">    1.65    1.65</time>
   <energy>
    <i name="alphaZ">      5.10426331 </i>
    <i name="ewald">   1805.59176964 </i>
    <i name="hartreedc">  -2412.76204338 </i>
    <i name="XCdc">     13.95875170 </i>
    <i name="pawpsdc">   2059.30145132 </i>
    <i name="pawaedc">  -2026.97973348 </i>
    <i name="eentropy">     -0.00000000 </i>
    <i name="bandstr">   -169.82987629 </i>
    <i name="atom">    704.16778566 </i>
    <i name="e_fr_energy">    -21.44763151 </i>
    <i name="e_wo_entrp">    -21.44763151 </i>
    <i name="e_0_energy">    -21.44763151 </i>
   </energy>
  </scstep>
  <scstep>
   <time name="dav">    1.92    1.92</time>
   <time name="total">    2.03    2.04</time>
   <energy>
    <i name="e_fr_energy">    -21.44777755 </i>
    <i name="e_wo_entrp">    -21.44777755 </i>
    <i name="e_0_energy">    -21.44777755 </i>
   </energy>
  </scstep>
  <scstep>
   <time name="dav">    1.84    1.84</time>
   <time name="total">    1.95    1.95</time>
   <energy>
    <i name="e_fr_energy">    -21.44777452 </i>
    <i name="e_wo_entrp">    -21.44777452 </i>
    <i name="e_0_energy">    -21.44777452 </i>
   </energy>
  </scstep>
  <scstep>
   <time name="dav">    1.40    1.40</time>
   <time name="total">    1.51    1.51</time>
   <energy>
    <i name="e_fr_energy">    -21.44777459 </i>
    <i name="e_wo_entrp">    -21.44777459 </i>
    <i name="e_0_energy">    -21.44777459 </i>
   </energy>
  </scstep>
  <scstep>
   <time name="dav">    1.25    1.25</time>
   <time name="total">    1.37    1.37</time>
   <energy>
    <i name="e_fr_energy">    -21.44777459 </i>
    <i name="e_wo_entrp">    -21.44777459 </i>
    <i name="e_0_energy">    -21.44777459 </i>
   </energy>
  </scstep>
  <scstep>
   <time name="dav">    1.24    1.24</time>
   <time name="total">    1.26    1.27</time>
   <energy>
    <i name="alphaZ">      5.10426331 </i>
    <i name="ewald">   1805.59176964 </i>
    <i name="hartreedc">  -2412.76586505 </i>
    <i name="XCdc">     13.95986774 </i>
    <i name="pawpsdc">   2067.68212046 </i>
    <i name="pawaedc">  -2035.36324851 </i>
    <i name="eentropy">     -0.00000000 </i>
    <i name="bandstr">   -169.82446782 </i>
    <i name="atom">    704.16778566 </i>
    <i name="e_fr_energy">    -21.44777457 </i>
    <i name="e_wo_entrp">    -21.44777457 </i>
    <i name="e_0_energy">    -21.44777457 </i>
   </energy>
  </scstep>
  <structure>
   <crystal>
    <varray name="basis" >
     <v>       3.29720400       0.00000000       0.00000000 </v>
     <v>       0.00000000       4.76003100      -0.00005300 </v>
     <v>       0.00000000       0.00000000      20.02439000 </v>
    </varray>
    <i name="volume">    314.27866107 </i>
    <varray name="rec_basis" >
     <v>       0.30328727       0.00000000       0.00000000 </v>
     <v>       0.00000000       0.21008267       0.00000000 </v>
     <v>       0.00000000       0.00000056       0.04993910 </v>
    </varray>
   </crystal>
   <varray name="positions" >
    <v>       0.50000000       0.90645683       0.55217871 </v>
    <v>       0.50000000       0.09354317       0.44782129 </v>
    <v>      -0.00000000       0.40645247       0.44782129 </v>
    <v>       0.00000000       0.59354753       0.55217871 </v>
   </varray>
  </structure>
  <varray name="forces" >
   <v>       0.00000001       0.00783685      -0.04481176 </v>
   <v>      -0.00000001      -0.00783685       0.04481176 </v>
   <v>       0.00000001       0.00782365       0.04481023 </v>
   <v>      -0.00000001      -0.00782365      -0.04481023 </v>
  </varray>
  <varray name="stress" >
   <v>      -2.14043055       0.00000007      -0.00000003 </v>
   <v>       0.00000009      -3.59164695       0.00018084 </v>
   <v>      -0.00000006       0.00018083      -1.03897613 </v>
  </varray>
  <energy>
   <i name="e_fr_energy">    -21.44777457 </i>
   <i name="e_wo_entrp">    -21.44777457 </i>
   <i name="e_0_energy">     -0.00000000 </i>
  </energy>
  <time name="totalsc">   10.61   10.62</time>
 </calculation>
 <calculation>
  <scstep>
   <time name="dav">    1.53    1.53</time>
   <time name="total">    1.65    1.65</time>
   <energy>
    <i name="alphaZ">      5.10426331 </i>
    <i name="ewald">   1808.58282512 </i>
    <i name="hartreedc">  -2415.58579773 </i>
    <i name="XCdc">     13.98021397 </i>
    <i name="pawpsdc">   2067.67803934 </i>
    <i name="pawaedc">  -2035.35909603 </i>
    <i name="eentropy">     -0.00000000 </i>
    <i name="bandstr">   -170.01611433 </i>
    <i name="atom">    704.16778566 </i>
    <i name="e_fr_energy">    -21.44788068 </i>
    <i name="e_wo_entrp">    -21.44788068 </i>
    <i name="e_0_energy">    -21.44788068 </i>
   </energy>
  </scstep>
  <scstep>
   <time name="dav">    1.94    1.94</time>
   <time name="total">    2.05    2.05</time>
   <energy>
    <i name="e_fr_energy">    -21.44807952 </i>
    <i name="e_wo_entrp">    -21.44807952 </i>
    <i name="e_0_energy">    -21.44807952 </i>
   </energy>
  </scstep>
  <scstep>
   <time name="dav">    1.96    1.96</time>
   <time name="total">    2.07    2.07</time>
   <energy>
    <i name="e_fr_energy">    -21.44807511 </i>
    <i name="e_wo_entrp">    -21.44807511 </i>
    <i name="e_0_energy">    -21.44807511 </i>
   </energy>
  </scstep>
  <scstep>
   <time name="dav">    1.41    1.41</time>
   <time name="total">    1.52    1.53</time>
   <energy>
    <i name="e_fr_energy">    -21.44807498 </i>
    <i name="e_wo_entrp">    -21.44807498 </i>
    <i name="e_0_energy">    -21.44807498 </i>
   </energy>
  </scstep>
  <scstep>
   <time name="dav">    1.27    1.27</time>
   <time name="total">    1.39    1.39</time>
   <energy>
    <i name="e_fr_energy">    -21.44807496 </i>
    <i name="e_wo_entrp">    -21.44807496 </i>
    <i name="e_0_energy">    -21.44807496 </i>
   </energy>
  </scstep>
  <scstep>
   <time name="dav">    1.21    1.21</time>
   <time name="total">    1.23    1.23</time>
   <energy>
    <i name="alphaZ">      5.10426331 </i>
    <i name="ewald">   1808.58282512 </i>
    <i name="hartreedc">  -2415.58702561 </i>
    <i name="XCdc">     13.98150236 </i>
    <i name="pawpsdc">   2077.60055294 </i>
    <i name="pawaedc">  -2045.28497660 </i>
    <i name="eentropy">     -0.00000000 </i>
    <i name="bandstr">   -170.01300218 </i>
    <i name="atom">    704.16778566 </i>
    <i name="e_fr_energy">    -21.44807498 </i>
    <i name="e_wo_entrp">    -21.44807498 </i>
    <i name="e_0_energy">    -21.44807498 </i>
   </energy>
  </scstep>
  <structure>
   <crystal>
    <varray name="basis" >
     <v>       3.29720400       0.00000000       0.00000000 </v>
     <v>       0.00000000       4.76003100      -0.00005300 </v>
     <v>       0.00000000       0.00000000      20.02439000 </v>
    </varray>
    <i name="volume">    314.27866107 </i>
    <varray name="rec_basis" >
     <v>       0.30328727       0.00000000       0.00000000 </v>
     <v>       0.00000000       0.21008267       0.00000000 </v>
     <v>       0.00000000       0.00000056       0.04993910 </v>
    </varray>
   </crystal>
   <varray name="positions" >
    <v>       0.50000000       0.90644828       0.55201120 </v>
    <v>       0.50000000       0.09355172       0.44798880 </v>
    <v>      -0.00000000       0.40644379       0.44798880 </v>
    <v>       0.00000000       0.59355621       0.55201120 </v>
   </varray>
  </structure>
  <varray name="forces" >
   <v>       0.00000001      -0.00204223       0.00103605 </v>
   <v>      -0.00000001       0.00204223      -0.00103605 </v>
   <v>       0.00000002      -0.00205257      -0.00103644 </v>
   <v>      -0.00000002       0.00205257       0.00103644 </v>
  </varray>
  <varray name="stress" >
   <v>      -2.04959653       0.00000038      -0.00000003 </v>
   <v>       0.00000047      -3.40081620       0.00014738 </v>
   <v>      -0.00000002       0.00014734      -0.06543410 </v>
  </varray>
  <energy>
   <i name="e_fr_energy">    -21.44807498 </i>
   <i name="e_wo_entrp">    -21.44807498 </i>
   <i name="e_0_energy">     -0.00000000 </i>
  </energy>
  <time name="totalsc">   10.67   10.69</time>
  <eigenvalues>
   <array>
    <dimension dim="1">band</dimension>
    <dimension dim="2">kpoint</dimension>
    <dimension dim="3">spin</dimension>
    <field>eigene</field>
    <field>occ</field>
    <set>
     <set comment="spin 1">
      <set comment="kpoint 1">
       <r>  -17.2488    1.0000 </r>
       <r>  -14.8836    1.0000 </r>
       <r>  -11.6920    1.0000 </r>
       <r>   -7.9972    1.0000 </r>
       <r>   -7.2045    1.0000 </r>
       <r>   -6.7868    1.0000 </r>
       <r>   -5.6260    1.0000 </r>
       <r>   -4.1189    1.0000 </r>
       <r>   -3.9320    1.0000 </r>
       <r>   -2.4127    1.0000 </r>
       <r>   -1.3907    0.0000 </r>
       <r>   -0.7004    0.0000 </r>
       <r>    0.2522    0.0000 </r>
       <r>    0.8092    0.0000 </r>
       <r>    2.0361    0.0000 </r>
       <r>    2.2731    0.0000 </r>
      </set>
      <set comment="kpoint 2">
       <r>  -17.2242    1.0000 </r>
       <r>  -14.8579    1.0000 </r>
       <r>  -11.6973    1.0000 </r>
       <r>   -7.9790    1.0000 </r>
       <r>   -7.2174    1.0000 </r>
       <r>   -6.7653    1.0000 </r>
       <r>   -5.7919    1.0000 </r>
       <r>   -4.2936    1.0000 </r>
       <r>   -3.9237    1.0000 </r>
       <r>   -2.4126    1.0000 </r>
       <r>   -1.3682    0.0000 </r>
       <r>   -0.4735    0.0000 </r>
       <r>    0.4761    0.0000 </r>
       <r>    0.6596    0.0000 </r>
       <r>    2.0612    0.0000 </r>
       <r>    2.3005    0.0000 </r>
      </set>
      <set comment="kpoint 3">
       <r>  -17.1506    1.0000 </r>
       <r>  -14.7808    1.0000 </r>
       <r>  -11.7174    1.0000 </r>
       <r>   -7.9251    1.0000 </r>
       <r>   -7.2713    1.0000 </r>
       <r>   -6.7010    1.0000 </r>
       <r>   -6.2038    1.0000 </r>
       <r>   -4.7066    1.0000 </r>
       <r>   -3.9025    1.0000 </r>
       <r>   -2.4264    1.0000 </r>
       <r>   -1.3013    0.0000 </r>
       <r>    0.1354    0.0000 </r>
       <r>    0.2851    0.0000 </r>
       <r>    1.0316    0.0000 </r>
       <r>    2.1323    0.0000 </r>
       <r>    2.3826    0.0000 </r>
      </set>
      <set comment="kpoint 4">
       <r>  -17.0284    1.0000 </r>
       <r>  -14.6525    1.0000 </r>
       <r>  -11.7649    1.0000 </r>
       <r>   -7.8379    1.0000 </r>
       <r>   -7.4150    1.0000 </r>
       <r>   -6.7094    1.0000 </r>
       <r>   -6.5953    1.0000 </r>
       <r>   -5.1542    1.0000 </r>
       <r>   -3.8792    1.0000 </r>
       <r>   -2.4715    1.0000 </r>
       <r>   -1.1916    0.0000 </r>
       <r>   -0.1808    0.0000 </r>
       <r>    0.9900    0.0000 </r>
       <r>    1.6532    0.0000 </r>
       <r>    2.1973    0.0000 </r>
       <r>    2.5189    0.0000 </r>
      </set>
      <set comment="kpoint 5">
       <r>  -16.8580    1.0000 </r>
       <r>  -14.4731    1.0000 </r>
       <r>  -11.8603    1.0000 </r>
       <r>   -7.7215    1.0000 </r>
       <r>   -7.7178    1.0000 </r>
       <r>   -7.1942    1.0000 </r>
       <r>   -6.4503    1.0000 </r>
       <r>   -5.4711    1.0000 </r>
       <r>   -3.8747    1.0000 </r>
       <r>   -2.5583    1.0000 </r>
       <r>   -1.0426    0.0000 </r>
       <r>   -0.6315    0.0000 </r>
       <r>    1.7938    0.0000 </r>
       <r>    1.8687    0.0000 </r>
       <r>    1.9631    0.0000 </r>
       <r>    2.5555    0.0000 </r>
      </set>
      <set comment="kpoint 6">
       <r>  -16.6404    1.0000 </r>
       <r>  -14.2431    1.0000 </r>
       <r>  -12.0282    1.0000 </r>
       <r>   -8.1965    1.0000 </r>
       <r>   -7.5846    1.0000 </r>
       <r>   -7.5836    1.0000 </r>
       <r>   -6.2696    1.0000 </r>
       <r>   -5.5950    1.0000 </r>
       <r>   -3.9186    1.0000 </r>
       <r>   -2.6963    1.0000 </r>
       <r>   -0.9853    0.0000 </r>
       <r>   -0.8629    0.0000 </r>
       <r>    1.3116    0.0000 </r>
       <r>    1.3282    0.0000 </r>
       <r>    2.5704    0.0000 </r>
       <r>    2.7779    0.0000 </r>
      </set>
      <set comment="kpoint 7">
       <r>  -16.3767    1.0000 </r>
       <r>  -13.9630    1.0000 </r>
       <r>  -12.2864    1.0000 </r>
       <r>   -8.7886    1.0000 </r>
       <r>   -7.8389    1.0000 </r>
       <r>   -7.4367    1.0000 </r>
       <r>   -6.0590    1.0000 </r>
       <r>   -5.5699    1.0000 </r>
       <r>   -4.0340    1.0000 </r>
       <r>   -2.8916    1.0000 </r>
       <r>   -1.1828    0.0000 </r>
       <r>   -0.6772    0.0000 </r>
       <r>    0.7022    0.0000 </r>
       <r>    0.8208    0.0000 </r>
       <r>    2.2038    0.0000 </r>
       <r>    3.0755    0.0000 </r>
      </set>
      <set comment="kpoint 8">
       <r>  -16.0685    1.0000 </r>
       <r>  -13.6333    1.0000 </r>
       <r>  -12.6342    1.0000 </r>
       <r>   -9.4258    1.0000 </r>
       <r>   -7.9468    1.0000 </r>
       <r>   -7.3016    1.0000 </r>
       <r>   -5.8277    1.0000 </r>
       <r>   -5.4613    1.0000 </r>
       <r>   -4.2074    1.0000 </r>
       <r>   -3.1417    1.0000 </r>
       <r>   -1.2037    0.0000 </r>
       <r>   -0.5696    0.0000 </r>
       <r>    0.1114    0.0000 </r>
       <r>    0.4696    0.0000 </r>
       <r>    1.7389    0.0000 </r>
       <r>    3.1070    0.0000 </r>
      </set>
      <set comment="kpoint 9">
       <r>  -15.7183    1.0000 </r>
       <r>  -13.2550    1.0000 </r>
       <r>  -13.0516    1.0000 </r>
       <r>  -10.0670    1.0000 </r>
       <r>   -7.9256    1.0000 </r>
       <r>   -7.2093    1.0000 </r>
       <r>   -5.5902    1.0000 </r>
       <r>   -5.3189    1.0000 </r>
       <r>   -4.3794    1.0000 </r>
       <r>   -3.4331    1.0000 </r>
       <r>   -1.0701    0.0000 </r>
       <r>   -0.6924    0.0000 </r>
       <r>   -0.4123    0.0000 </r>
       <r>    0.4523    0.0000 </r>
       <r>    1.2724    0.0000 </r>
       <r>    2.7551    0.0000 </r>
      </set>
      <set comment="kpoint 10">
       <r>  -15.3291    1.0000 </r>
       <r>  -13.5105    1.0000 </r>
       <r>  -12.8291    1.0000 </r>
       <r>  -10.6905    1.0000 </r>
       <r>   -7.8080    1.0000 </r>
       <r>   -7.1957    1.0000 </r>
       <r>   -5.3687    1.0000 </r>
       <r>   -5.1844    1.0000 </r>
       <r>   -4.4742    1.0000 </r>
       <r>   -3.7423    1.0000 </r>
       <r>   -0.9509    0.0000 </r>
       <r>   -0.8326    0.0000 </r>
       <r>   -0.8197    0.0000 </r>
       <r>    0.7013    0.0000 </r>
       <r>    0.8053    0.0000 </r>
       <r>    2.3400    0.0000 </r>
      </set>
      <set comment="kpoint 11">
       <r>  -14.9057    1.0000 </r>
       <r>  -13.9846    1.0000 </r>
       <r>  -12.3572    1.0000 </r>
       <r>  -11.2842    1.0000 </r>
       <r>   -7.6319    1.0000 </r>
       <r>   -7.2791    1.0000 </r>
       <r>   -5.1938    1.0000 </r>
       <r>   -5.0991    1.0000 </r>
       <r>   -4.4429    1.0000 </r>
       <r>   -4.0389    1.0000 </r>
       <r>   -1.1568    0.0000 </r>
       <r>   -1.1128    0.0000 </r>
       <r>   -0.4850    0.0000 </r>
       <r>    0.3461    0.0000 </r>
       <r>    1.0591    0.0000 </r>
       <r>    1.9018    0.0000 </r>
      </set>
      <set comment="kpoint 12">
       <r>  -14.4543    1.0000 </r>
       <r>  -14.4543    1.0000 </r>
       <r>  -11.8412    1.0000 </r>
       <r>  -11.8412    1.0000 </r>
       <r>   -7.4396    1.0000 </r>
       <r>   -7.4396    1.0000 </r>
       <r>   -5.0981    1.0000 </r>
       <r>   -5.0981    1.0000 </r>
       <r>   -4.2862    1.0000 </r>
       <r>   -4.2862    1.0000 </r>
       <r>   -1.2224    0.0000 </r>
       <r>   -1.2224    0.0000 </r>
       <r>   -0.0899    0.0000 </r>
       <r>   -0.0899    0.0000 </r>
       <r>    1.4677    0.0000 </r>
       <r>    1.4677    0.0000 </r>
      </set>
      <set comment="kpoint 13">
       <r>  -17.2290    1.0000 </r>
       <r>  -14.9171    1.0000 </r>
       <r>  -11.6846    1.0000 </r>
       <r>   -8.1772    1.0000 </r>
       <r>   -7.0662    1.0000 </r>
       <r>   -6.7082    1.0000 </r>
       <r>   -5.6109    1.0000 </r>
       <r>   -4.1354    1.0000 </r>
       <r>   -3.8605    1.0000 </r>
       <r>   -2.5968    1.0000 </r>
       <r>   -1.2161    0.0000 </r>
       <r>   -0.6850    0.0000 </r>
       <r>    0.2069    0.0000 </r>
       <r>    0.8069    0.0000 </r>
       <r>    2.0892    0.0000 </r>
       <r>    2.3009    0.0000 </r>
      </set>
      <set comment="kpoint 14">
       <r>  -17.2044    1.0000 </r>
       <r>  -14.8915    1.0000 </r>
       <r>  -11.6891    1.0000 </r>
       <r>   -8.1631    1.0000 </r>
       <r>   -7.0738    1.0000 </r>
       <r>   -6.6926    1.0000 </r>
       <r>   -5.7712    1.0000 </r>
       <r>   -4.3136    1.0000 </r>
       <r>   -3.8532    1.0000 </r>
       <r>   -2.5934    1.0000 </r>
       <r>   -1.1968    0.0000 </r>
       <r>   -0.4587    0.0000 </r>
       <r>    0.4241    0.0000 </r>
       <r>    0.6680    0.0000 </r>
       <r>    2.1135    0.0000 </r>
       <r>    2.3283    0.0000 </r>
      </set>
      <set comment="kpoint 15">
       <r>  -17.1309    1.0000 </r>
       <r>  -14.8149    1.0000 </r>
       <r>  -11.7065    1.0000 </r>
       <r>   -8.1248    1.0000 </r>
       <r>   -7.1087    1.0000 </r>
       <r>   -6.6627    1.0000 </r>
       <r>   -6.1506    1.0000 </r>
       <r>   -4.7329    1.0000 </r>
       <r>   -3.8376    1.0000 </r>
       <r>   -2.5951    1.0000 </r>
       <r>   -1.1423    0.0000 </r>
       <r>    0.1491    0.0000 </r>
       <r>    0.2833    0.0000 </r>
       <r>    1.0025    0.0000 </r>
       <r>    2.1816    0.0000 </r>
       <r>    2.4103    0.0000 </r>
      </set>
      <set comment="kpoint 16">
       <r>  -17.0088    1.0000 </r>
       <r>  -14.6875    1.0000 </r>
       <r>  -11.7493    1.0000 </r>
       <r>   -8.0790    1.0000 </r>
       <r>   -7.2069    1.0000 </r>
       <r>   -6.8165    1.0000 </r>
       <r>   -6.4008    1.0000 </r>
       <r>   -5.1864    1.0000 </r>
       <r>   -3.8260    1.0000 </r>
       <r>   -2.6191    1.0000 </r>
       <r>   -1.0532    0.0000 </r>
       <r>   -0.1653    0.0000 </r>
       <r>    0.9994    0.0000 </r>
       <r>    1.6360    0.0000 </r>
       <r>    2.2133    0.0000 </r>
       <r>    2.4799    0.0000 </r>
      </set>
      <set comment="kpoint 17">
       <r>  -16.8385    1.0000 </r>
       <r>  -14.5099    1.0000 </r>
       <r>  -11.8383    1.0000 </r>
       <r>   -8.0926    1.0000 </r>
       <r>   -7.3803    1.0000 </r>
       <r>   -7.2460    1.0000 </r>
       <r>   -6.3179    1.0000 </r>
       <r>   -5.5041    1.0000 </r>
       <r>   -3.8394    1.0000 </r>
       <r>   -2.6792    1.0000 </r>
       <r>   -0.9297    0.0000 </r>
       <r>   -0.5937    0.0000 </r>
       <r>    1.6936    0.0000 </r>
       <r>    1.8314    0.0000 </r>
       <r>    2.0442    0.0000 </r>
       <r>    2.5295    0.0000 </r>
      </set>
      <set comment="kpoint 18">
       <r>  -16.6211    1.0000 </r>
       <r>  -14.2827    1.0000 </r>
       <r>  -11.9980    1.0000 </r>
       <r>   -8.3465    1.0000 </r>
       <r>   -7.6270    1.0000 </r>
       <r>   -7.4725    1.0000 </r>
       <r>   -6.1560    1.0000 </r>
       <r>   -5.6246    1.0000 </r>
       <r>   -3.9052    1.0000 </r>
       <r>   -2.7889    1.0000 </r>
       <r>   -0.9201    0.0000 </r>
       <r>   -0.7767    0.0000 </r>
       <r>    1.1753    0.0000 </r>
       <r>    1.3837    0.0000 </r>
       <r>    2.5815    0.0000 </r>
       <r>    2.8957    0.0000 </r>
      </set>
      <set comment="kpoint 19">
       <r>  -16.3577    1.0000 </r>
       <r>  -14.0081    1.0000 </r>
       <r>  -12.2459    1.0000 </r>
       <r>   -8.8584    1.0000 </r>
       <r>   -7.8787    1.0000 </r>
       <r>   -7.4089    1.0000 </r>
       <r>   -5.9598    1.0000 </r>
       <r>   -5.6017    1.0000 </r>
       <r>   -4.0379    1.0000 </r>
       <r>   -2.9571    1.0000 </r>
       <r>   -1.0911    0.0000 </r>
       <r>   -0.6168    0.0000 </r>
       <r>    0.6690    0.0000 </r>
       <r>    0.7840    0.0000 </r>
       <r>    2.3362    0.0000 </r>
       <r>    3.1393    0.0000 </r>
      </set>
      <set comment="kpoint 20">
       <r>  -16.0500    1.0000 </r>
       <r>  -13.6920    1.0000 </r>
       <r>  -12.5770    1.0000 </r>
       <r>   -9.4684    1.0000 </r>
       <r>   -7.9843    1.0000 </r>
       <r>   -7.2982    1.0000 </r>
       <r>   -5.7459    1.0000 </r>
       <r>   -5.5100    1.0000 </r>
       <r>   -4.2102    1.0000 </r>
       <r>   -3.1817    1.0000 </r>
       <r>   -1.0952    0.0000 </r>
       <r>   -0.5431    0.0000 </r>
       <r>    0.1954    0.0000 </r>
       <r>    0.3306    0.0000 </r>
       <r>    1.9217    0.0000 </r>
       <r>    3.0485    0.0000 </r>
      </set>
      <set comment="kpoint 21">
       <r>  -15.7005    1.0000 </r>
       <r>  -13.3842    1.0000 </r>
       <r>  -12.9225    1.0000 </r>
       <r>  -10.0978    1.0000 </r>
       <r>   -7.9595    1.0000 </r>
       <r>   -7.2105    1.0000 </r>
       <r>   -5.5341    1.0000 </r>
       <r>   -5.4065    1.0000 </r>
       <r>   -4.3506    1.0000 </r>
       <r>   -3.4464    1.0000 </r>
       <r>   -0.9649    0.0000 </r>
       <r>   -0.7138    0.0000 </r>
       <r>   -0.3225    0.0000 </r>
       <r>    0.3355    0.0000 </r>
       <r>    1.4923    0.0000 </r>
       <r>    2.7054    0.0000 </r>
      </set>
      <set comment="kpoint 22">
       <r>  -15.3125    1.0000 </r>
       <r>  -13.5395    1.0000 </r>
       <r>  -12.8000    1.0000 </r>
       <r>  -10.7144    1.0000 </r>
       <r>   -7.8363    1.0000 </r>
       <r>   -7.1969    1.0000 </r>
       <r>   -5.3528    1.0000 </r>
       <r>   -5.3230    1.0000 </r>
       <r>   -4.3895    1.0000 </r>
       <r>   -3.7226    1.0000 </r>
       <r>   -0.9887    0.0000 </r>
       <r>   -0.8774    0.0000 </r>
       <r>   -0.5921    0.0000 </r>
       <r>    0.5224    0.0000 </r>
       <r>    1.1105    0.0000 </r>
       <r>    2.2986    0.0000 </r>
      </set>
      <set comment="kpoint 23">
       <r>  -14.8910    1.0000 </r>
       <r>  -13.9824    1.0000 </r>
       <r>  -12.3601    1.0000 </r>
       <r>  -11.3029    1.0000 </r>
       <r>   -7.6529    1.0000 </r>
       <r>   -7.2838    1.0000 </r>
       <r>   -5.2562    1.0000 </r>
       <r>   -5.2382    1.0000 </r>
       <r>   -4.3205    1.0000 </r>
       <r>   -3.9756    1.0000 </r>
       <r>   -1.1882    0.0000 </r>
       <r>   -1.1127    0.0000 </r>
       <r>   -0.3270    0.0000 </r>
       <r>    0.4215    0.0000 </r>
       <r>    1.1124    0.0000 </r>
       <r>    1.8720    0.0000 </r>
      </set>
      <set comment="kpoint 24">
       <r>  -14.4434    1.0000 </r>
       <r>  -14.4434    1.0000 </r>
       <r>  -11.8541    1.0000 </r>
       <r>  -11.8541    1.0000 </r>
       <r>   -7.4521    1.0000 </r>
       <r>   -7.4521    1.0000 </r>
       <r>   -5.2133    1.0000 </r>
       <r>   -5.2133    1.0000 </r>
       <r>   -4.1778    1.0000 </r>
       <r>   -4.1778    1.0000 </r>
       <r>   -1.2374    0.0000 </r>
       <r>   -1.2374    0.0000 </r>
       <r>    0.0454    0.0000 </r>
       <r>    0.0454    0.0000 </r>
       <r>    1.4588    0.0000 </r>
       <r>    1.4588    0.0000 </r>
      </set>
      <set comment="kpoint 25">
       <r>  -14.8910    1.0000 </r>
       <r>  -13.9824    1.0000 </r>
       <r>  -12.3601    1.0000 </r>
       <r>  -11.3029    1.0000 </r>
       <r>   -7.6529    1.0000 </r>
       <r>   -7.2838    1.0000 </r>
       <r>   -5.2562    1.0000 </r>
       <r>   -5.2382    1.0000 </r>
       <r>   -4.3205    1.0000 </r>
       <r>   -3.9756    1.0000 </r>
       <r>   -1.1882    0.0000 </r>
       <r>   -1.1127    0.0000 </r>
       <r>   -0.3270    0.0000 </r>
       <r>    0.4215    0.0000 </r>
       <r>    1.1124    0.0000 </r>
       <r>    1.8720    0.0000 </r>
      </set>
      <set comment="kpoint 26">
       <r>  -15.3125    1.0000 </r>
       <r>  -13.5395    1.0000 </r>
       <r>  -12.8000    1.0000 </r>
       <r>  -10.7144    1.0000 </r>
       <r>   -7.8363    1.0000 </r>
       <r>   -7.1969    1.0000 </r>
       <r>   -5.3528    1.0000 </r>
       <r>   -5.3230    1.0000 </r>
       <r>   -4.3895    1.0000 </r>
       <r>   -3.7226    1.0000 </r>
       <r>   -0.9887    0.0000 </r>
       <r>   -0.8774    0.0000 </r>
       <r>   -0.5921    0.0000 </r>
       <r>    0.5224    0.0000 </r>
       <r>    1.1105    0.0000 </r>
       <r>    2.2986    0.0000 </r>
      </set>
      <set comment="kpoint 27">
       <r>  -15.7005    1.0000 </r>
       <r>  -13.3842    1.0000 </r>
       <r>  -12.9225    1.0000 </r>
       <r>  -10.0978    1.0000 </r>
       <r>   -7.9595    1.0000 </r>
       <r>   -7.2105    1.0000 </r>
       <r>   -5.5341    1.0000 </r>
       <r>   -5.4065    1.0000 </r>
       <r>   -4.3506    1.0000 </r>
       <r>   -3.4464    1.0000 </r>
       <r>   -0.9649    0.0000 </r>
       <r>   -0.7138    0.0000 </r>
       <r>   -0.3225    0.0000 </r>
       <r>    0.3355    0.0000 </r>
       <r>    1.4923    0.0000 </r>
       <r>    2.7054    0.0000 </r>
      </set>
      <set comment="kpoint 28">
       <r>  -16.0500    1.0000 </r>
       <r>  -13.6920    1.0000 </r>
       <r>  -12.5770    1.0000 </r>
       <r>   -9.4684    1.0000 </r>
       <r>   -7.9843    1.0000 </r>
       <r>   -7.2982    1.0000 </r>
       <r>   -5.7459    1.0000 </r>
       <r>   -5.5100    1.0000 </r>
       <r>   -4.2102    1.0000 </r>
       <r>   -3.1817    1.0000 </r>
       <r>   -1.0952    0.0000 </r>
       <r>   -0.5431    0.0000 </r>
       <r>    0.1954    0.0000 </r>
       <r>    0.3306    0.0000 </r>
       <r>    1.9217    0.0000 </r>
       <r>    3.0485    0.0000 </r>
      </set>
      <set comment="kpoint 29">
       <r>  -16.3577    1.0000 </r>
       <r>  -14.0081    1.0000 </r>
       <r>  -12.2459    1.0000 </r>
       <r>   -8.8584    1.0000 </r>
       <r>   -7.8787    1.0000 </r>
       <r>   -7.4089    1.0000 </r>
       <r>   -5.9598    1.0000 </r>
       <r>   -5.6017    1.0000 </r>
       <r>   -4.0379    1.0000 </r>
       <r>   -2.9571    1.0000 </r>
       <r>   -1.0911    0.0000 </r>
       <r>   -0.6168    0.0000 </r>
       <r>    0.6690    0.0000 </r>
       <r>    0.7840    0.0000 </r>
       <r>    2.3362    0.0000 </r>
       <r>    3.1393    0.0000 </r>
      </set>
      <set comment="kpoint 30">
       <r>  -16.6211    1.0000 </r>
       <r>  -14.2827    1.0000 </r>
       <r>  -11.9980    1.0000 </r>
       <r>   -8.3465    1.0000 </r>
       <r>   -7.6270    1.0000 </r>
       <r>   -7.4725    1.0000 </r>
       <r>   -6.1560    1.0000 </r>
       <r>   -5.6246    1.0000 </r>
       <r>   -3.9052    1.0000 </r>
       <r>   -2.7889    1.0000 </r>
       <r>   -0.9201    0.0000 </r>
       <r>   -0.7767    0.0000 </r>
       <r>    1.1753    0.0000 </r>
       <r>    1.3837    0.0000 </r>
       <r>    2.5815    0.0000 </r>
       <r>    2.8957    0.0000 </r>
      </set>
      <set comment="kpoint 31">
       <r>  -16.8385    1.0000 </r>
       <r>  -14.5099    1.0000 </r>
       <r>  -11.8383    1.0000 </r>
       <r>   -8.0926    1.0000 </r>
       <r>   -7.3803    1.0000 </r>
       <r>   -7.2460    1.0000 </r>
       <r>   -6.3179    1.0000 </r>
       <r>   -5.5041    1.0000 </r>
       <r>   -3.8394    1.0000 </r>
       <r>   -2.6792    1.0000 </r>
       <r>   -0.9297    0.0000 </r>
       <r>   -0.5937    0.0000 </r>
       <r>    1.6936    0.0000 </r>
       <r>    1.8314    0.0000 </r>
       <r>    2.0442    0.0000 </r>
       <r>    2.5295    0.0000 </r>
      </set>
      <set comment="kpoint 32">
       <r>  -17.0088    1.0000 </r>
       <r>  -14.6875    1.0000 </r>
       <r>  -11.7493    1.0000 </r>
       <r>   -8.0790    1.0000 </r>
       <r>   -7.2069    1.0000 </r>
       <r>   -6.8165    1.0000 </r>
       <r>   -6.4008    1.0000 </r>
       <r>   -5.1864    1.0000 </r>
       <r>   -3.8260    1.0000 </r>
       <r>   -2.6191    1.0000 </r>
       <r>   -1.0532    0.0000 </r>
       <r>   -0.1653    0.0000 </r>
       <r>    0.9994    0.0000 </r>
       <r>    1.6360    0.0000 </r>
       <r>    2.2133    0.0000 </r>
       <r>    2.4799    0.0000 </r>
      </set>
      <set comment="kpoint 33">
       <r>  -17.1309    1.0000 </r>
       <r>  -14.8149    1.0000 </r>
       <r>  -11.7065    1.0000 </r>
       <r>   -8.1248    1.0000 </r>
       <r>   -7.1087    1.0000 </r>
       <r>   -6.6627    1.0000 </r>
       <r>   -6.1506    1.0000 </r>
       <r>   -4.7329    1.0000 </r>
       <r>   -3.8376    1.0000 </r>
       <r>   -2.5951    1.0000 </r>
       <r>   -1.1423    0.0000 </r>
       <r>    0.1491    0.0000 </r>
       <r>    0.2833    0.0000 </r>
       <r>    1.0025    0.0000 </r>
       <r>    2.1816    0.0000 </r>
       <r>    2.4103    0.0000 </r>
      </set>
      <set comment="kpoint 34">
       <r>  -17.2044    1.0000 </r>
       <r>  -14.8915    1.0000 </r>
       <r>  -11.6891    1.0000 </r>
       <r>   -8.1631    1.0000 </r>
       <r>   -7.0738    1.0000 </r>
       <r>   -6.6926    1.0000 </r>
       <r>   -5.7712    1.0000 </r>
       <r>   -4.3136    1.0000 </r>
       <r>   -3.8532    1.0000 </r>
       <r>   -2.5934    1.0000 </r>
       <r>   -1.1968    0.0000 </r>
       <r>   -0.4587    0.0000 </r>
       <r>    0.4241    0.0000 </r>
       <r>    0.6680    0.0000 </r>
       <r>    2.1135    0.0000 </r>
       <r>    2.3283    0.0000 </r>
      </set>
      <set comment="kpoint 35">
       <r>  -17.1698    1.0000 </r>
       <r>  -15.0151    1.0000 </r>
[...]
       <r>    3.1782    0.0000 </r>
       <r>    3.3078    0.0000 </r>
      </set>
      <set comment="kpoint 161">
       <r>  -15.5124    1.0000 </r>
       <r>  -15.2779    1.0000 </r>
       <r>  -10.9363    1.0000 </r>
       <r>  -10.6186    1.0000 </r>
       <r>   -7.9060    1.0000 </r>
       <r>   -7.7615    1.0000 </r>
       <r>   -5.2524    1.0000 </r>
       <r>   -5.0293    1.0000 </r>
       <r>   -3.9297    1.0000 </r>
       <r>   -3.9029    1.0000 </r>
       <r>    0.0393    0.0000 </r>
       <r>    0.3426    0.0000 </r>
       <r>    1.0387    0.0000 </r>
       <r>    1.3199    0.0000 </r>
       <r>    3.0967    0.0000 </r>
       <r>    3.2648    0.0000 </r>
      </set>
      <set comment="kpoint 162">
       <r>  -15.7616    1.0000 </r>
       <r>  -15.5236    1.0000 </r>
       <r>  -10.8072    1.0000 </r>
       <r>  -10.4830    1.0000 </r>
       <r>   -7.5567    1.0000 </r>
       <r>   -7.4084    1.0000 </r>
       <r>   -5.1648    1.0000 </r>
       <r>   -4.8859    1.0000 </r>
       <r>   -3.9310    1.0000 </r>
       <r>   -3.8360    1.0000 </r>
       <r>    0.1267    0.0000 </r>
       <r>    0.3387    0.0000 </r>
       <r>    1.1360    0.0000 </r>
       <r>    1.4513    0.0000 </r>
       <r>    2.7498    0.0000 </r>
       <r>    3.0458    0.0000 </r>
      </set>
      <set comment="kpoint 163">
       <r>  -15.9700    1.0000 </r>
       <r>  -15.7300    1.0000 </r>
       <r>  -10.7741    1.0000 </r>
       <r>  -10.4521    1.0000 </r>
       <r>   -7.0434    1.0000 </r>
       <r>   -6.8849    1.0000 </r>
       <r>   -5.1881    1.0000 </r>
       <r>   -4.8723    1.0000 </r>
       <r>   -3.8966    1.0000 </r>
       <r>   -3.6856    1.0000 </r>
       <r>    0.3032    0.0000 </r>
       <r>    0.4111    0.0000 </r>
       <r>    1.1486    0.0000 </r>
       <r>    1.4900    0.0000 </r>
       <r>    2.1501    0.0000 </r>
       <r>    2.3859    0.0000 </r>
      </set>
      <set comment="kpoint 164">
       <r>  -16.1344    1.0000 </r>
       <r>  -15.8934    1.0000 </r>
       <r>  -10.7914    1.0000 </r>
       <r>  -10.4739    1.0000 </r>
       <r>   -6.4336    1.0000 </r>
       <r>   -6.2649    1.0000 </r>
       <r>   -5.2501    1.0000 </r>
       <r>   -4.9205    1.0000 </r>
       <r>   -3.8702    1.0000 </r>
       <r>   -3.5658    1.0000 </r>
       <r>    0.4888    0.0000 </r>
       <r>    0.4992    0.0000 </r>
       <r>    1.0871    0.0000 </r>
       <r>    1.3856    0.0000 </r>
       <r>    1.5661    0.0000 </r>
       <r>    1.6812    0.0000 </r>
      </set>
      <set comment="kpoint 165">
       <r>  -16.2530    1.0000 </r>
       <r>  -16.0114    1.0000 </r>
       <r>  -10.8235    1.0000 </r>
       <r>  -10.5099    1.0000 </r>
       <r>   -5.8010    1.0000 </r>
       <r>   -5.6349    1.0000 </r>
       <r>   -5.3022    1.0000 </r>
       <r>   -4.9770    1.0000 </r>
       <r>   -3.9039    1.0000 </r>
       <r>   -3.5263    1.0000 </r>
       <r>    0.3016    0.0000 </r>
       <r>    0.3259    0.0000 </r>
       <r>    1.0685    0.0000 </r>
       <r>    1.1236    0.0000 </r>
       <r>    1.3735    0.0000 </r>
       <r>    1.4763    0.0000 </r>
      </set>
      <set comment="kpoint 166">
       <r>  -16.3245    1.0000 </r>
       <r>  -16.0827    1.0000 </r>
       <r>  -10.8495    1.0000 </r>
       <r>  -10.5383    1.0000 </r>
       <r>   -5.3765    1.0000 </r>
       <r>   -5.2459    1.0000 </r>
       <r>   -5.0543    1.0000 </r>
       <r>   -5.0167    1.0000 </r>
       <r>   -4.0149    1.0000 </r>
       <r>   -3.5775    1.0000 </r>
       <r>   -0.1283    0.0000 </r>
       <r>   -0.0951    0.0000 </r>
       <r>    1.1108    0.0000 </r>
       <r>    1.2012    0.0000 </r>
       <r>    1.4309    0.0000 </r>
       <r>    1.4397    0.0000 </r>
      </set>
     </set>
    </set>
   </array>
  </eigenvalues>
  <separator name="orbital magnetization" >
   <v name="MAGDIPOLOUT">      0.00000000      0.00000000      0.00000000</v>
  </separator>
  <dos>
   <i name="efermi">     -2.31690462 </i>
   <total>
    <array>
     <dimension dim="1">gridpoints</dimension>
     <dimension dim="2">spin</dimension>
     <field>energy</field>
     <field>total</field>
     <field>integrated</field>
     <set>
      <set comment="spin 1">
       <r>   -18.2844     0.0000     0.0000 </r>
       <r>   -18.2084     0.0000     0.0000 </r>
       <r>   -18.1325     0.0000     0.0000 </r>
       <r>   -18.0565     0.0000     0.0000 </r>
       <r>   -17.9806     0.0000     0.0000 </r>
       <r>   -17.9047     0.0000     0.0000 </r>
       <r>   -17.8287     0.0000     0.0000 </r>
       <r>   -17.7528     0.0000     0.0000 </r>
       <r>   -17.6768     0.0000     0.0000 </r>
       <r>   -17.6009     0.0000     0.0000 </r>
       <r>   -17.5249     0.0000     0.0000 </r>
       <r>   -17.4490     0.0000     0.0000 </r>
       <r>   -17.3730     0.0000     0.0000 </r>
       <r>   -17.2971     0.0000     0.0000 </r>
       <r>   -17.2211     0.3223     0.0245 </r>
       <r>   -17.1452     0.8634     0.0901 </r>
       <r>   -17.0693     0.7895     0.1500 </r>
       <r>   -16.9933     0.9636     0.2232 </r>
       <r>   -16.9174     0.9277     0.2936 </r>
       <r>   -16.8414     0.8920     0.3614 </r>
       <r>   -16.7655     0.8297     0.4244 </r>
       <r>   -16.6895     0.8676     0.4903 </r>
       <r>   -16.6136     0.8664     0.5561 </r>
       <r>   -16.5376     1.3602     0.6594 </r>
       <r>   -16.4617     0.6641     0.7098 </r>
       <r>   -16.3857     0.3737     0.7382 </r>
       <r>   -16.3098     1.7210     0.8689 </r>
       <r>   -16.2339     0.5913     0.9138 </r>
       <r>   -16.1579     0.9471     0.9857 </r>
       <r>   -16.0820     0.8319     1.0489 </r>
       <r>   -16.0060     1.0796     1.1309 </r>
       <r>   -15.9301     1.0634     1.2117 </r>
       <r>   -15.8541     0.9841     1.2864 </r>
       <r>   -15.7782     0.6126     1.3329 </r>
       <r>   -15.7022     1.6253     1.4564 </r>
       <r>   -15.6263     0.9240     1.5266 </r>
       <r>   -15.5504     0.9756     1.6006 </r>
       <r>   -15.4744     1.2341     1.6944 </r>
       <r>   -15.3985     0.8615     1.7598 </r>
       <r>   -15.3225     0.8679     1.8257 </r>
       <r>   -15.2466     1.9006     1.9700 </r>
       <r>   -15.1706     1.0289     2.0482 </r>
       <r>   -15.0947     1.0517     2.1281 </r>
       <r>   -15.0187     1.1943     2.2188 </r>
       <r>   -14.9428     1.5288     2.3349 </r>
       <r>   -14.8668     2.0073     2.4873 </r>
       <r>   -14.7909     1.2951     2.5857 </r>
       <r>   -14.7150     1.9417     2.7331 </r>
       <r>   -14.6390     1.0306     2.8114 </r>
       <r>   -14.5631     1.0943     2.8945 </r>
       <r>   -14.4871     1.2371     2.9885 </r>
       <r>   -14.4112     1.6000     3.1100 </r>
       <r>   -14.3352     0.9415     3.1815 </r>
       <r>   -14.2593     1.5793     3.3014 </r>
       <r>   -14.1833     1.5735     3.4209 </r>
       <r>   -14.1074     0.8775     3.4876 </r>
       <r>   -14.0314     1.0099     3.5643 </r>
       <r>   -13.9555     2.2897     3.7381 </r>
       <r>   -13.8796     0.2852     3.7598 </r>
       <r>   -13.8036     0.5573     3.8021 </r>
       <r>   -13.7277     0.4502     3.8363 </r>
       <r>   -13.6517     0.4178     3.8680 </r>
       <r>   -13.5758     0.6925     3.9206 </r>
       <r>   -13.4998     0.5293     3.9608 </r>
       <r>   -13.4239     0.0377     3.9637 </r>
       <r>   -13.3479     0.3168     3.9878 </r>
       <r>   -13.2720     0.0199     3.9893 </r>
       <r>   -13.1961     0.1413     4.0000 </r>
       <r>   -13.1201     0.0000     4.0000 </r>
       <r>   -13.0442     0.1119     4.0085 </r>
       <r>   -12.9682     0.0479     4.0121 </r>
       <r>   -12.8923     0.3138     4.0360 </r>
       <r>   -12.8163     0.1753     4.0493 </r>
       <r>   -12.7404     0.3661     4.0771 </r>
       <r>   -12.6644     0.5836     4.1214 </r>
       <r>   -12.5885     0.4886     4.1585 </r>
       <r>   -12.5125     0.4208     4.1905 </r>
       <r>   -12.4366     0.5978     4.2359 </r>
       <r>   -12.3607     1.0736     4.3174 </r>
       <r>   -12.2847     1.2697     4.4138 </r>
       <r>   -12.2088     1.5464     4.5313 </r>
       <r>   -12.1328     0.9513     4.6035 </r>
       <r>   -12.0569     0.8701     4.6696 </r>
       <r>   -11.9809     1.6969     4.7985 </r>
       <r>   -11.9050     0.9366     4.8696 </r>
       <r>   -11.8290     1.8280     5.0084 </r>
       <r>   -11.7531     1.5389     5.1253 </r>
       <r>   -11.6771     2.5790     5.3212 </r>
       <r>   -11.6012     1.9387     5.4684 </r>
       <r>   -11.5253     1.4009     5.5748 </r>
       <r>   -11.4493     2.4564     5.7613 </r>
       <r>   -11.3734     0.4682     5.7969 </r>
       <r>   -11.2974     1.8454     5.9370 </r>
       <r>   -11.2215     1.4673     6.0485 </r>
       <r>   -11.1455     0.4102     6.0796 </r>
       <r>   -11.0696     1.3429     6.1816 </r>
       <r>   -10.9936     0.9346     6.2526 </r>
       <r>   -10.9177     0.4413     6.2861 </r>
       <r>   -10.8418     1.0236     6.3638 </r>
       <r>   -10.7658     1.5911     6.4847 </r>
       <r>   -10.6899     0.7899     6.5447 </r>
       <r>   -10.6139     0.3030     6.5677 </r>
       <r>   -10.5380     0.7737     6.6264 </r>
       <r>   -10.4620     1.3986     6.7327 </r>
       <r>   -10.3861     0.3282     6.7576 </r>
       <r>   -10.3101     0.3668     6.7854 </r>
       <r>   -10.2342     0.5916     6.8304 </r>
       <r>   -10.1582     0.9352     6.9014 </r>
       <r>   -10.0823     1.3883     7.0068 </r>
       <r>   -10.0064     0.5017     7.0449 </r>
       <r>    -9.9304     0.3406     7.0708 </r>
       <r>    -9.8545     0.0256     7.0727 </r>
       <r>    -9.7785     0.7587     7.1304 </r>
       <r>    -9.7026     1.2499     7.2253 </r>
       <r>    -9.6266     0.1654     7.2378 </r>
       <r>    -9.5507     0.5384     7.2787 </r>
       <r>    -9.4747     0.1053     7.2867 </r>
       <r>    -9.3988     0.5379     7.3276 </r>
       <r>    -9.3228     1.2369     7.4215 </r>
       <r>    -9.2469     0.6742     7.4727 </r>
       <r>    -9.1710     0.0000     7.4727 </r>
       <r>    -9.0950     0.0001     7.4727 </r>
       <r>    -9.0191     0.4054     7.5035 </r>
       <r>    -8.9431     0.6822     7.5553 </r>
       <r>    -8.8672     1.0650     7.6362 </r>
       <r>    -8.7912     0.3096     7.6597 </r>
       <r>    -8.7153     0.0914     7.6667 </r>
       <r>    -8.6393     0.2695     7.6871 </r>
       <r>    -8.5634     0.0721     7.6926 </r>
       <r>    -8.4875     0.9865     7.7675 </r>
       <r>    -8.4115     0.4276     7.8000 </r>
       <r>    -8.3356     0.2492     7.8189 </r>
       <r>    -8.2596     0.0703     7.8243 </r>
       <r>    -8.1837     1.0623     7.9049 </r>
       <r>    -8.1077     2.4071     8.0877 </r>
       <r>    -8.0318     2.5649     8.2825 </r>
       <r>    -7.9558     2.6996     8.4876 </r>
       <r>    -7.8799     1.9860     8.6384 </r>
       <r>    -7.8039     1.6759     8.7657 </r>
       <r>    -7.7280     2.4589     8.9524 </r>
       <r>    -7.6521     2.2692     9.1247 </r>
       <r>    -7.5761     1.4297     9.2333 </r>
       <r>    -7.5002     1.5004     9.3473 </r>
       <r>    -7.4242     2.8292     9.5621 </r>
       <r>    -7.3483     2.9185     9.7838 </r>
       <r>    -7.2723     5.3207    10.1879 </r>
       <r>    -7.1964     3.8081    10.4771 </r>
       <r>    -7.1204     1.5871    10.5976 </r>
       <r>    -7.0445     1.5987    10.7190 </r>
       <r>    -6.9685     0.1885    10.7333 </r>
       <r>    -6.8926     0.5897    10.7781 </r>
       <r>    -6.8167     1.8528    10.9188 </r>
       <r>    -6.7407     1.3321    11.0200 </r>
       <r>    -6.6648     1.6429    11.1448 </r>
       <r>    -6.5888     2.0206    11.2982 </r>
       <r>    -6.5129     1.4825    11.4108 </r>
       <r>    -6.4369     1.5247    11.5266 </r>
       <r>    -6.3610     0.8783    11.5933 </r>
       <r>    -6.2850     1.8828    11.7363 </r>
       <r>    -6.2091     2.1274    11.8979 </r>
       <r>    -6.1331     1.9956    12.0494 </r>
       <r>    -6.0572     1.2842    12.1469 </r>
       <r>    -5.9813     2.6364    12.3472 </r>
       <r>    -5.9053     1.4675    12.4586 </r>
       <r>    -5.8294     1.7520    12.5917 </r>
       <r>    -5.7534     2.4876    12.7806 </r>
       <r>    -5.6775     4.9304    13.1550 </r>
       <r>    -5.6015     4.7854    13.5185 </r>
       <r>    -5.5256     3.2598    13.7660 </r>
       <r>    -5.4496     3.6182    14.0408 </r>
       <r>    -5.3737     2.7727    14.2514 </r>
       <r>    -5.2978     3.5856    14.5237 </r>
       <r>    -5.2218     3.4595    14.7864 </r>
       <r>    -5.1459     2.5624    14.9810 </r>
       <r>    -5.0699     1.5580    15.0994 </r>
       <r>    -4.9940     2.1184    15.2602 </r>
       <r>    -4.9180     1.0112    15.3370 </r>
       <r>    -4.8421     1.9273    15.4834 </r>
       <r>    -4.7661     0.8513    15.5480 </r>
       <r>    -4.6902     1.7420    15.6803 </r>
       <r>    -4.6142     1.0865    15.7629 </r>
       <r>    -4.5383     1.2685    15.8592 </r>
       <r>    -4.4624     0.7544    15.9165 </r>
       <r>    -4.3864     0.6941    15.9692 </r>
       <r>    -4.3105     1.7633    16.1031 </r>
       <r>    -4.2345     1.9865    16.2540 </r>
       <r>    -4.1586     3.0217    16.4834 </r>
       <r>    -4.0826     2.0365    16.6381 </r>
       <r>    -4.0067     3.1726    16.8791 </r>
       <r>    -3.9307     2.5552    17.0731 </r>
       <r>    -3.8548     4.6491    17.4262 </r>
       <r>    -3.7788     4.8124    17.7917 </r>
       <r>    -3.7029     2.5478    17.9852 </r>
       <r>    -3.6270     3.8305    18.2761 </r>
       <r>    -3.5510     3.1590    18.5160 </r>
       <r>    -3.4751     3.3406    18.7697 </r>
       <r>    -3.3991     4.0882    19.0802 </r>
       <r>    -3.3232     3.5049    19.3463 </r>
       <r>    -3.2472     1.5804    19.4664 </r>
       <r>    -3.1713     1.0965    19.5496 </r>
       <r>    -3.0953     1.0505    19.6294 </r>
       <r>    -3.0194     0.2214    19.6462 </r>
       <r>    -2.9435     1.6180    19.7691 </r>
       <r>    -2.8675     0.3997    19.7995 </r>
       <r>    -2.7916     0.1429    19.8103 </r>
       <r>    -2.7156     0.1988    19.8254 </r>
       <r>    -2.6397     0.4864    19.8623 </r>
       <r>    -2.5637     1.1389    19.9488 </r>
       <r>    -2.4878     0.1350    19.9591 </r>
       <r>    -2.4118     0.4002    19.9895 </r>
       <r>    -2.3359     0.1384    20.0000 </r>
       <r>    -2.2599     0.0000    20.0000 </r>
       <r>    -2.1840     0.0000    20.0000 </r>
       <r>    -2.1081     0.0000    20.0000 </r>
       <r>    -2.0321     0.0000    20.0000 </r>
       <r>    -1.9562     0.0000    20.0000 </r>
       <r>    -1.8802     0.0000    20.0000 </r>
       <r>    -1.8043     0.0000    20.0000 </r>
       <r>    -1.7283     0.0000    20.0000 </r>
       <r>    -1.6524     0.0000    20.0000 </r>
       <r>    -1.5764     0.0000    20.0000 </r>
       <r>    -1.5005     0.0000    20.0000 </r>
       <r>    -1.4245     0.0007    20.0001 </r>
       <r>    -1.3486     0.2255    20.0172 </r>
       <r>    -1.2727     0.1715    20.0302 </r>
       <r>    -1.1967     1.6207    20.1533 </r>
       <r>    -1.1208     1.6974    20.2822 </r>
       <r>    -1.0448     2.2219    20.4509 </r>
       <r>    -0.9689     1.2848    20.5485 </r>
       <r>    -0.8929     1.6743    20.6757 </r>
       <r>    -0.8170     1.8403    20.8154 </r>
       <r>    -0.7410     2.5670    21.0104 </r>
       <r>    -0.6651     2.1581    21.1743 </r>
       <r>    -0.5892     2.0095    21.3269 </r>
       <r>    -0.5132     1.6498    21.4522 </r>
       <r>    -0.4373     3.2778    21.7011 </r>
       <r>    -0.3613     2.8421    21.9170 </r>
       <r>    -0.2854     3.3340    22.1702 </r>
       <r>    -0.2094     2.3130    22.3458 </r>
       <r>    -0.1335     2.4800    22.5342 </r>
       <r>    -0.0575     3.2332    22.7797 </r>
       <r>     0.0184     2.7642    22.9897 </r>
       <r>     0.0944     4.6734    23.3446 </r>
       <r>     0.1703     2.6749    23.5477 </r>
       <r>     0.2462     2.7142    23.7539 </r>
       <r>     0.3222     4.9467    24.1295 </r>
       <r>     0.3981     6.6439    24.6341 </r>
       <r>     0.4741     4.1986    24.9530 </r>
       <r>     0.5500     5.1878    25.3470 </r>
       <r>     0.6260     1.7441    25.4794 </r>
       <r>     0.7019     3.7020    25.7606 </r>
       <r>     0.7779     3.9867    26.0633 </r>
       <r>     0.8538     3.0491    26.2949 </r>
       <r>     0.9298     1.9663    26.4442 </r>
       <r>     1.0057     2.6604    26.6463 </r>
       <r>     1.0816     3.8616    26.9395 </r>
       <r>     1.1576     3.9870    27.2423 </r>
       <r>     1.2335     0.9396    27.3137 </r>
       <r>     1.3095     1.4318    27.4224 </r>
       <r>     1.3854     2.0614    27.5790 </r>
       <r>     1.4614     2.4449    27.7647 </r>
       <r>     1.5373     1.9587    27.9134 </r>
       <r>     1.6133     2.6400    28.1139 </r>
       <r>     1.6892     2.7401    28.3220 </r>
       <r>     1.7651     2.2012    28.4892 </r>
       <r>     1.8411     2.4019    28.6716 </r>
       <r>     1.9170     1.9266    28.8179 </r>
       <r>     1.9930     2.6851    29.0218 </r>
       <r>     2.0689     1.6592    29.1478 </r>
       <r>     2.1449     2.4554    29.3343 </r>
       <r>     2.2208     1.9949    29.4858 </r>
       <r>     2.2968     2.9612    29.7107 </r>
       <r>     2.3727     2.8604    29.9279 </r>
       <r>     2.4487     3.4328    30.1886 </r>
       <r>     2.5246     3.0600    30.4210 </r>
       <r>     2.6005     3.2152    30.6652 </r>
       <r>     2.6765     2.5103    30.8558 </r>
       <r>     2.7524     2.7866    31.0675 </r>
       <r>     2.8284     1.1912    31.1579 </r>
       <r>     2.9043     2.7420    31.3662 </r>
       <r>     2.9803     0.6890    31.4185 </r>
       <r>     3.0562     1.7470    31.5512 </r>
       <r>     3.1322     1.9829    31.7018 </r>
       <r>     3.2081     1.7368    31.8337 </r>
       <r>     3.2841     0.9015    31.9021 </r>
       <r>     3.3600     0.9165    31.9717 </r>
       <r>     3.4359     0.0610    31.9764 </r>
       <r>     3.5119     0.3110    32.0000 </r>
       <r>     3.5878     0.0001    32.0000 </r>
       <r>     3.6638     0.0000    32.0000 </r>
       <r>     3.7397     0.0000    32.0000 </r>
       <r>     3.8157     0.0000    32.0000 </r>
       <r>     3.8916     0.0000    32.0000 </r>
       <r>     3.9676     0.0000    32.0000 </r>
       <r>     4.0435     0.0000    32.0000 </r>
       <r>     4.1194     0.0000    32.0000 </r>
       <r>     4.1954     0.0000    32.0000 </r>
       <r>     4.2713     0.0000    32.0000 </r>
       <r>     4.3473     0.0000    32.0000 </r>
       <r>     4.4232     0.0000    32.0000 </r>
       <r>     4.4992     0.0000    32.0000 </r>
      </set>
     </set>
    </array>
   </total>
  </dos>
 </calculation>
 <structure name="finalpos" >
  <crystal>
   <varray name="basis" >
    <v>       3.29720400       0.00000000       0.00000000 </v>
    <v>       0.00000000       4.76003100      -0.00005300 </v>
    <v>       0.00000000       0.00000000      20.02439000 </v>
   </varray>
   <i name="volume">    314.27866107 </i>
   <varray name="rec_basis" >
    <v>       0.30328727       0.00000000       0.00000000 </v>
    <v>       0.00000000       0.21008267       0.00000000 </v>
    <v>       0.00000000       0.00000056       0.04993910 </v>
   </varray>
  </crystal>
  <varray name="positions" >
   <v>       0.50000000       0.90644828       0.55201120 </v>
   <v>       0.50000000       0.09355172       0.44798880 </v>
   <v>      -0.00000000       0.40644379       0.44798880 </v>
   <v>       0.00000000       0.59355621       0.55201120 </v>
  </varray>
 </structure>
</modeling>
