<?xml version="1.0" encoding="ISO-8859-1"?>
<modeling>
 <generator>
  <i name="program" type="string">vasp </i>
  <i name="version" type="string">5.4.1  </i>
  <i name="subversion" type="string">24Jun15 (build Nov 20 2020 10:29:34) complex                          parallel </i>
  <i name="platform" type="string">IFC91_ompi </i>
  <i name="date" type="string">2021 09 09 </i>
  <i name="time" type="string">13:45:26 </i>
 </generator>
 <incar>
  <i type="string" name="PREC">a</i>
  <i type="string" name="ALGO"> Normal</i>
  <i type="int" name="ISPIN">     1</i>
  <i type="int" name="ICHARG">     2</i>
  <i type="int" name="NELM">   250</i>
  <i type="int" name="NELMDL">    -5</i>
  <i type="int" name="NELMIN">     6</i>
  <i type="int" name="IBRION">     2</i>
  <i name="EDIFF">      0.00001000</i>
  <i name="EDIFFG">     -0.01000000</i>
  <i type="int" name="NSW">   200</i>
  <i type="int" name="ISIF">     2</i>
  <i name="ENCUT">    520.00000000</i>
  <i name="POTIM">      0.30000000</i>
  <i type="logical" name="LREAL"> F  </i>
  <i type="int" name="ISMEAR">     0</i>
  <i name="SIGMA">      0.02000000</i>
  <i type="logical" name="LWAVE"> F  </i>
  <i type="logical" name="LCHARG"> F  </i>
  <i type="logical" name="LAECHG"> F  </i>
  <v type="int" name="KPOINT_BSE">    -1     0     0     0</v>
  <i type="int" name="NELM">   250</i>
 </incar>
 <kpoints>
  <generation param="Gamma">
   <v type="int" name="divisions">      21       15        1 </v>
   <v name="usershift">      0.00000000       0.00000000       0.00000000 </v>
   <v name="genvec1">      0.04761905       0.00000000       0.00000000 </v>
   <v name="genvec2">      0.00000000       0.06666667       0.00000000 </v>
   <v name="genvec3">      0.00000000      -0.00000000       1.00000000 </v>
   <v name="shift">      0.00000000       0.00000000       0.00000000 </v>
  </generation>
  <varray name="kpointlist" >
   <v>       0.00000000       0.00000000       0.00000000 </v>
   <v>       0.04761905       0.00000000       0.00000000 </v>
   <v>       0.09523810       0.00000000       0.00000000 </v>
   <v>       0.14285714       0.00000000       0.00000000 </v>
   <v>       0.19047619       0.00000000       0.00000000 </v>
   <v>       0.23809524       0.00000000       0.00000000 </v>
   <v>       0.28571429       0.00000000       0.00000000 </v>
   <v>       0.33333333       0.00000000       0.00000000 </v>
   <v>       0.38095238       0.00000000       0.00000000 </v>
   <v>       0.42857143       0.00000000       0.00000000 </v>
   <v>       0.47619048       0.00000000       0.00000000 </v>
   <v>       0.00000000       0.06666667       0.00000000 </v>
   <v>       0.04761905       0.06666667       0.00000000 </v>
   <v>       0.09523810       0.06666667       0.00000000 </v>
   <v>       0.14285714       0.06666667       0.00000000 </v>
   <v>       0.19047619       0.06666667       0.00000000 </v>
   <v>       0.23809524       0.06666667       0.00000000 </v>
   <v>       0.28571429       0.06666667       0.00000000 </v>
   <v>       0.33333333       0.06666667       0.00000000 </v>
   <v>       0.38095238       0.06666667       0.00000000 </v>
   <v>       0.42857143       0.06666667       0.00000000 </v>
   <v>       0.47619048       0.06666667       0.00000000 </v>
   <v>      -0.47619048       0.06666667       0.00000000 </v>
   <v>      -0.42857143       0.06666667       0.00000000 </v>
   <v>      -0.38095238       0.06666667       0.00000000 </v>
   <v>      -0.33333333       0.06666667       0.00000000 </v>
   <v>      -0.28571429       0.06666667       0.00000000 </v>
   <v>      -0.23809524       0.06666667       0.00000000 </v>
   <v>      -0.19047619       0.06666667       0.00000000 </v>
   <v>      -0.14285714       0.06666667       0.00000000 </v>
   <v>      -0.09523810       0.06666667       0.00000000 </v>
   <v>      -0.04761905       0.06666667       0.00000000 </v>
   <v>       0.00000000       0.13333333       0.00000000 </v>
   <v>       0.04761905       0.13333333       0.00000000 </v>
   <v>       0.09523810       0.13333333       0.00000000 </v>
   <v>       0.14285714       0.13333333       0.00000000 </v>
   <v>       0.19047619       0.13333333       0.00000000 </v>
   <v>       0.23809524       0.13333333       0.00000000 </v>
   <v>       0.28571429       0.13333333       0.00000000 </v>
   <v>       0.33333333       0.13333333       0.00000000 </v>
   <v>       0.38095238       0.13333333       0.00000000 </v>
   <v>       0.42857143       0.13333333       0.00000000 </v>
   <v>       0.47619048       0.13333333       0.00000000 </v>
   <v>      -0.47619048       0.13333333       0.00000000 </v>
   <v>      -0.42857143       0.13333333       0.00000000 </v>
   <v>      -0.38095238       0.13333333       0.00000000 </v>
   <v>      -0.33333333       0.13333333       0.00000000 </v>
   <v>      -0.28571429       0.13333333       0.00000000 </v>
   <v>      -0.23809524       0.13333333       0.00000000 </v>
   <v>      -0.19047619       0.13333333       0.00000000 </v>
   <v>      -0.14285714       0.13333333       0.00000000 </v>
   <v>      -0.09523810       0.13333333       0.00000000 </v>
   <v>      -0.04761905       0.13333333       0.00000000 </v>
   <v>       0.00000000       0.20000000       0.00000000 </v>
   <v>       0.04761905       0.20000000       0.00000000 </v>
   <v>       0.09523810       0.20000000       0.00000000 </v>
   <v>       0.14285714       0.20000000       0.00000000 </v>
   <v>       0.19047619       0.20000000       0.00000000 </v>
   <v>       0.23809524       0.20000000       0.00000000 </v>
   <v>       0.28571429       0.20000000       0.00000000 </v>
   <v>       0.33333333       0.20000000       0.00000000 </v>
   <v>       0.38095238       0.20000000       0.00000000 </v>
   <v>       0.42857143       0.20000000       0.00000000 </v>
   <v>       0.47619048       0.20000000       0.00000000 </v>
   <v>      -0.47619048       0.20000000       0.00000000 </v>
   <v>      -0.42857143       0.20000000       0.00000000 </v>
   <v>      -0.38095238       0.20000000       0.00000000 </v>
   <v>      -0.33333333       0.20000000       0.00000000 </v>
   <v>      -0.28571429       0.20000000       0.00000000 </v>
   <v>      -0.23809524       0.20000000       0.00000000 </v>
   <v>      -0.19047619       0.20000000       0.00000000 </v>
   <v>      -0.14285714       0.20000000       0.00000000 </v>
   <v>      -0.09523810       0.20000000       0.00000000 </v>
   <v>      -0.04761905       0.20000000       0.00000000 </v>
   <v>       0.00000000       0.26666667       0.00000000 </v>
   <v>       0.04761905       0.26666667       0.00000000 </v>
   <v>       0.09523810       0.26666667       0.00000000 </v>
   <v>       0.14285714       0.26666667       0.00000000 </v>
   <v>       0.19047619       0.26666667       0.00000000 </v>
   <v>       0.23809524       0.26666667       0.00000000 </v>
   <v>       0.28571429       0.26666667       0.00000000 </v>
   <v>       0.33333333       0.26666667       0.00000000 </v>
   <v>       0.38095238       0.26666667       0.00000000 </v>
   <v>       0.42857143       0.26666667       0.00000000 </v>
   <v>       0.47619048       0.26666667       0.00000000 </v>
   <v>      -0.47619048       0.26666667       0.00000000 </v>
   <v>      -0.42857143       0.26666667       0.00000000 </v>
   <v>      -0.38095238       0.26666667       0.00000000 </v>
   <v>      -0.33333333       0.26666667       0.00000000 </v>
   <v>      -0.28571429       0.26666667       0.00000000 </v>
   <v>      -0.23809524       0.26666667       0.00000000 </v>
   <v>      -0.19047619       0.26666667       0.00000000 </v>
   <v>      -0.14285714       0.26666667       0.00000000 </v>
   <v>      -0.09523810       0.26666667       0.00000000 </v>
   <v>      -0.04761905       0.26666667       0.00000000 </v>
   <v>       0.00000000       0.33333333       0.00000000 </v>
   <v>       0.04761905       0.33333333       0.00000000 </v>
   <v>       0.09523810       0.33333333       0.00000000 </v>
   <v>       0.14285714       0.33333333       0.00000000 </v>
   <v>       0.19047619       0.33333333       0.00000000 </v>
   <v>       0.23809524       0.33333333       0.00000000 </v>
   <v>       0.28571429       0.33333333       0.00000000 </v>
   <v>       0.33333333       0.33333333       0.00000000 </v>
   <v>       0.38095238       0.33333333       0.00000000 </v>
   <v>       0.42857143       0.33333333       0.00000000 </v>
   <v>       0.47619048       0.33333333       0.00000000 </v>
   <v>      -0.47619048       0.33333333       0.00000000 </v>
   <v>      -0.42857143       0.33333333       0.00000000 </v>
   <v>      -0.38095238       0.33333333       0.00000000 </v>
   <v>      -0.33333333       0.33333333       0.00000000 </v>
   <v>      -0.28571429       0.33333333       0.00000000 </v>
   <v>      -0.23809524       0.33333333       0.00000000 </v>
   <v>      -0.19047619       0.33333333       0.00000000 </v>
   <v>      -0.14285714       0.33333333       0.00000000 </v>
   <v>      -0.09523810       0.33333333       0.00000000 </v>
   <v>      -0.04761905       0.33333333       0.00000000 </v>
   <v>       0.00000000       0.40000000       0.00000000 </v>
   <v>       0.04761905       0.40000000       0.00000000 </v>
   <v>       0.09523810       0.40000000       0.00000000 </v>
   <v>       0.14285714       0.40000000       0.00000000 </v>
   <v>       0.19047619       0.40000000       0.00000000 </v>
   <v>       0.23809524       0.40000000       0.00000000 </v>
   <v>       0.28571429       0.40000000       0.00000000 </v>
   <v>       0.33333333       0.40000000       0.00000000 </v>
   <v>       0.38095238       0.40000000       0.00000000 </v>
   <v>       0.42857143       0.40000000       0.00000000 </v>
   <v>       0.47619048       0.40000000       0.00000000 </v>
   <v>      -0.47619048       0.40000000       0.00000000 </v>
   <v>      -0.42857143       0.40000000       0.00000000 </v>
   <v>      -0.38095238       0.40000000       0.00000000 </v>
   <v>      -0.33333333       0.40000000       0.00000000 </v>
   <v>      -0.28571429       0.40000000       0.00000000 </v>
   <v>      -0.23809524       0.40000000       0.00000000 </v>
   <v>      -0.19047619       0.40000000       0.00000000 </v>
   <v>      -0.14285714       0.40000000       0.00000000 </v>
   <v>      -0.09523810       0.40000000       0.00000000 </v>
   <v>      -0.04761905       0.40000000       0.00000000 </v>
   <v>       0.00000000       0.46666667       0.00000000 </v>
   <v>       0.04761905       0.46666667       0.00000000 </v>
   <v>       0.09523810       0.46666667       0.00000000 </v>
   <v>       0.14285714       0.46666667       0.00000000 </v>
   <v>       0.19047619       0.46666667       0.00000000 </v>
   <v>       0.23809524       0.46666667       0.00000000 </v>
   <v>       0.28571429       0.46666667       0.00000000 </v>
   <v>       0.33333333       0.46666667       0.00000000 </v>
   <v>       0.38095238       0.46666667       0.00000000 </v>
   <v>       0.42857143       0.46666667       0.00000000 </v>
   <v>       0.47619048       0.46666667       0.00000000 </v>
   <v>      -0.47619048       0.46666667       0.00000000 </v>
   <v>      -0.42857143       0.46666667       0.00000000 </v>
   <v>      -0.38095238       0.46666667       0.00000000 </v>
   <v>      -0.33333333       0.46666667       0.00000000 </v>
   <v>      -0.28571429       0.46666667       0.00000000 </v>
   <v>      -0.23809524       0.46666667       0.00000000 </v>
   <v>      -0.19047619       0.46666667       0.00000000 </v>
   <v>      -0.14285714       0.46666667       0.00000000 </v>
   <v>      -0.09523810       0.46666667       0.00000000 </v>
   <v>      -0.04761905       0.46666667       0.00000000 </v>
  </varray>
  <varray name="weights" >
   <v>       0.00317460 </v>
   <v>       0.00634921 </v>
   <v>       0.00634921 </v>
   <v>       0.00634921 </v>
   <v>       0.00634921 </v>
   <v>       0.00634921 </v>
   <v>       0.00634921 </v>
   <v>       0.00634921 </v>
   <v>       0.00634921 </v>
   <v>       0.00634921 </v>
   <v>       0.00634921 </v>
   <v>       0.00634921 </v>
   <v>       0.00634921 </v>
   <v>       0.00634921 </v>
   <v>       0.00634921 </v>
   <v>       0.00634921 </v>
   <v>       0.00634921 </v>
   <v>       0.00634921 </v>
   <v>       0.00634921 </v>
   <v>       0.00634921 </v>
   <v>       0.00634921 </v>
   <v>       0.00634921 </v>
   <v>       0.00634921 </v>
   <v>       0.00634921 </v>
   <v>       0.00634921 </v>
   <v>       0.00634921 </v>
   <v>       0.00634921 </v>
   <v>       0.00634921 </v>
   <v>       0.00634921 </v>
   <v>       0.00634921 </v>
   <v>       0.00634921 </v>
   <v>       0.00634921 </v>
   <v>       0.00634921 </v>
   <v>       0.00634921 </v>
   <v>       0.00634921 </v>
   <v>       0.00634921 </v>
   <v>       0.00634921 </v>
   <v>       0.00634921 </v>
   <v>       0.00634921 </v>
   <v>       0.00634921 </v>
   <v>       0.00634921 </v>
   <v>       0.00634921 </v>
   <v>       0.00634921 </v>
   <v>       0.00634921 </v>
   <v>       0.00634921 </v>
   <v>       0.00634921 </v>
   <v>       0.00634921 </v>
   <v>       0.00634921 </v>
   <v>       0.00634921 </v>
   <v>       0.00634921 </v>
   <v>       0.00634921 </v>
   <v>       0.00634921 </v>
   <v>       0.00634921 </v>
   <v>       0.00634921 </v>
   <v>       0.00634921 </v>
   <v>       0.00634921 </v>
   <v>       0.00634921 </v>
   <v>       0.00634921 </v>
   <v>       0.00634921 </v>
   <v>       0.00634921 </v>
   <v>       0.00634921 </v>
   <v>       0.00634921 </v>
   <v>       0.00634921 </v>
   <v>       0.00634921 </v>
   <v>       0.00634921 </v>
   <v>       0.00634921 </v>
   <v>       0.00634921 </v>
   <v>       0.00634921 </v>
   <v>       0.00634921 </v>
   <v>       0.00634921 </v>
   <v>       0.00634921 </v>
   <v>       0.00634921 </v>
   <v>       0.00634921 </v>
   <v>       0.00634921 </v>
   <v>       0.00634921 </v>
   <v>       0.00634921 </v>
   <v>       0.00634921 </v>
   <v>       0.00634921 </v>
   <v>       0.00634921 </v>
   <v>       0.00634921 </v>
   <v>       0.00634921 </v>
   <v>       0.00634921 </v>
   <v>       0.00634921 </v>
   <v>       0.00634921 </v>
   <v>       0.00634921 </v>
   <v>       0.00634921 </v>
   <v>       0.00634921 </v>
   <v>       0.00634921 </v>
   <v>       0.00634921 </v>
   <v>       0.00634921 </v>
   <v>       0.00634921 </v>
   <v>       0.00634921 </v>
   <v>       0.00634921 </v>
   <v>       0.00634921 </v>
   <v>       0.00634921 </v>
   <v>       0.00634921 </v>
   <v>       0.00634921 </v>
   <v>       0.00634921 </v>
   <v>       0.00634921 </v>
   <v>       0.00634921 </v>
   <v>       0.00634921 </v>
   <v>       0.00634921 </v>
   <v>       0.00634921 </v>
   <v>       0.00634921 </v>
   <v>       0.00634921 </v>
   <v>       0.00634921 </v>
   <v>       0.00634921 </v>
   <v>       0.00634921 </v>
   <v>       0.00634921 </v>
   <v>       0.00634921 </v>
   <v>       0.00634921 </v>
   <v>       0.00634921 </v>
   <v>       0.00634921 </v>
   <v>       0.00634921 </v>
   <v>       0.00634921 </v>
   <v>       0.00634921 </v>
   <v>       0.00634921 </v>
   <v>       0.00634921 </v>
   <v>       0.00634921 </v>
   <v>       0.00634921 </v>
   <v>       0.00634921 </v>
   <v>       0.00634921 </v>
   <v>       0.00634921 </v>
   <v>       0.00634921 </v>
   <v>       0.00634921 </v>
   <v>       0.00634921 </v>
   <v>       0.00634921 </v>
   <v>       0.00634921 </v>
   <v>       0.00634921 </v>
   <v>       0.00634921 </v>
   <v>       0.00634921 </v>
   <v>       0.00634921 </v>
   <v>       0.00634921 </v>
   <v>       0.00634921 </v>
   <v>       0.00634921 </v>
   <v>       0.00634921 </v>
   <v>       0.00634921 </v>
   <v>       0.00634921 </v>
   <v>       0.00634921 </v>
   <v>       0.00634921 </v>
   <v>       0.00634921 </v>
   <v>       0.00634921 </v>
   <v>       0.00634921 </v>
   <v>       0.00634921 </v>
   <v>       0.00634921 </v>
   <v>       0.00634921 </v>
   <v>       0.00634921 </v>
   <v>       0.00634921 </v>
   <v>       0.00634921 </v>
   <v>       0.00634921 </v>
   <v>       0.00634921 </v>
   <v>       0.00634921 </v>
   <v>       0.00634921 </v>
   <v>       0.00634921 </v>
   <v>       0.00634921 </v>
   <v>       0.00634921 </v>
   <v>       0.00634921 </v>
   <v>       0.00634921 </v>
  </varray>
 </kpoints>
 <parameters>
  <separator name="general" >
   <i type="string" name="SYSTEM">unknown system</i>
   <i type="logical" name="LCOMPAT"> F  </i>
  </separator>
  <separator name="electronic" >
   <i type="string" name="PREC">a</i>
   <i name="ENMAX">    520.00000000</i>
   <i name="ENAUG">    342.92400000</i>
   <i name="EDIFF">      0.00001000</i>
   <i type="int" name="IALGO">    38</i>
   <i type="int" name="IWAVPR">    11</i>
   <i type="int" name="NBANDS">    16</i>
   <i name="NELECT">     20.00000000</i>
   <i type="int" name="TURBO">     0</i>
   <i type="int" name="IRESTART">     0</i>
   <i type="int" name="NREBOOT">     0</i>
   <i type="int" name="NMIN">     0</i>
   <i name="EREF">      0.00000000</i>
   <separator name="electronic smearing" >
    <i type="int" name="ISMEAR">     0</i>
    <i name="SIGMA">      0.02000000</i>
    <i name="KSPACING">      0.50000000</i>
    <i type="logical" name="KGAMMA"> T  </i>
   </separator>
   <separator name="electronic projectors" >
    <i type="logical" name="LREAL"> F  </i>
    <v name="ROPT">      0.00000000</v>
    <i type="int" name="LMAXPAW">  -100</i>
    <i type="int" name="LMAXMIX">     2</i>
    <i type="logical" name="NLSPLINE"> F  </i>
   </separator>
   <separator name="electronic startup" >
    <i type="int" name="ISTART">     0</i>
    <i type="int" name="ICHARG">     2</i>
    <i type="int" name="INIWAV">     1</i>
   </separator>
   <separator name="electronic spin" >
    <i type="int" name="ISPIN">     1</i>
    <i type="logical" name="LNONCOLLINEAR"> F  </i>
    <v name="MAGMOM">      1.00000000      1.00000000      1.00000000      1.00000000</v>
    <i name="NUPDOWN">     -1.00000000</i>
    <i type="logical" name="LSORBIT"> F  </i>
    <v name="SAXIS">      0.00000000      0.00000000      1.00000000</v>
    <i type="logical" name="LSPIRAL"> F  </i>
    <v name="QSPIRAL">      0.00000000      0.00000000      0.00000000</v>
    <i type="logical" name="LZEROZ"> F  </i>
   </separator>
   <separator name="electronic exchange-correlation" >
    <i type="logical" name="LASPH"> F  </i>
    <i type="logical" name="LMETAGGA"> F  </i>
   </separator>
   <separator name="electronic convergence" >
    <i type="int" name="NELM">   250</i>
    <i type="int" name="NELMDL">    -5</i>
    <i type="int" name="NELMIN">     6</i>
    <i name="ENINI">    520.00000000</i>
    <separator name="electronic convergence detail" >
     <i type="logical" name="LDIAG"> T  </i>
     <i type="logical" name="LSUBROT"> F  </i>
     <i name="WEIMIN">      0.00100000</i>
     <i name="EBREAK">      0.00000016</i>
     <i name="DEPER">      0.30000000</i>
     <i type="int" name="NRMM">     4</i>
     <i name="TIME">      0.40000000</i>
    </separator>
   </separator>
   <separator name="electronic mixer" >
    <i name="AMIX">      0.40000000</i>
    <i name="BMIX">      1.00000000</i>
    <i name="AMIN">      0.10000000</i>
    <i name="AMIX_MAG">      1.60000000</i>
    <i name="BMIX_MAG">      1.00000000</i>
    <separator name="electronic mixer details" >
     <i type="int" name="IMIX">     4</i>
     <i type="logical" name="MIXFIRST"> F  </i>
     <i type="int" name="MAXMIX">   -45</i>
     <i name="WC">    100.00000000</i>
     <i type="int" name="INIMIX">     1</i>
     <i type="int" name="MIXPRE">     1</i>
     <i type="int" name="MREMOVE">     5</i>
    </separator>
   </separator>
   <separator name="electronic dipolcorrection" >
    <i type="logical" name="LDIPOL"> F  </i>
    <i type="logical" name="LMONO"> F  </i>
    <i type="int" name="IDIPOL">     0</i>
    <i name="EPSILON">      1.00000000</i>
    <v name="DIPOL">   -100.00000000   -100.00000000   -100.00000000</v>
    <i name="EFIELD">      0.00000000</i>
   </separator>
  </separator>
  <separator name="grids" >
   <i type="int" name="NGX">    28</i>
   <i type="int" name="NGY">    36</i>
   <i type="int" name="NGZ">   150</i>
   <i type="int" name="NGXF">    56</i>
   <i type="int" name="NGYF">    72</i>
   <i type="int" name="NGZF">   300</i>
   <i type="logical" name="ADDGRID"> F  </i>
  </separator>
  <separator name="ionic" >
   <i type="int" name="NSW">   200</i>
   <i type="int" name="IBRION">     2</i>
   <i type="int" name="ISIF">     2</i>
   <i name="PSTRESS">      0.00000000</i>
   <i name="EDIFFG">     -0.01000000</i>
   <i type="int" name="NFREE">     1</i>
   <i name="POTIM">      0.30000000</i>
   <i name="SMASS">     -3.00000000</i>
   <i name="SCALEE">      1.00000000</i>
  </separator>
  <separator name="ionic md" >
   <i name="TEBEG">      0.00010000</i>
   <i name="TEEND">      0.00010000</i>
   <i type="int" name="NBLOCK">     1</i>
   <i type="int" name="KBLOCK">   200</i>
   <i type="int" name="NPACO">   256</i>
   <i name="APACO">     16.00000000</i>
  </separator>
  <separator name="symmetry" >
   <i type="int" name="ISYM">     2</i>
   <i name="SYMPREC">      0.00001000</i>
  </separator>
  <separator name="dos" >
   <i type="logical" name="LORBIT"> F  </i>
   <v name="RWIGS">     -1.00000000</v>
   <i type="int" name="NEDOS">   301</i>
   <i name="EMIN">     10.00000000</i>
   <i name="EMAX">    -10.00000000</i>
   <i name="EFERMI">      0.00000000</i>
  </separator>
  <separator name="writing" >
   <i type="int" name="NWRITE">     2</i>
   <i type="logical" name="LWAVE"> F  </i>
   <i type="logical" name="LCHARG"> F  </i>
   <i type="logical" name="LPARD"> F  </i>
   <i type="logical" name="LVTOT"> F  </i>
   <i type="logical" name="LVHAR"> F  </i>
   <i type="logical" name="LELF"> F  </i>
   <i type="logical" name="LOPTICS"> F  </i>
   <v name="STM">      0.00000000      0.00000000      0.00000000      0.00000000      0.00000000      0.00000000      0.00000000</v>
  </separator>
  <separator name="performance" >
   <i type="int" name="NPAR">     4</i>
   <i type="int" name="NSIM">     4</i>
   <i type="int" name="NBLK">    -1</i>
   <i type="logical" name="LPLANE"> T  </i>
   <i type="logical" name="LSCALAPACK"> T  </i>
   <i type="logical" name="LSCAAWARE"> F  </i>
   <i type="logical" name="LSCALU"> F  </i>
   <i type="logical" name="LASYNC"> F  </i>
   <i type="logical" name="LORBITALREAL"> F  </i>
  </separator>
  <separator name="miscellaneous" >
   <i type="int" name="IDIOT">     3</i>
   <i type="logical" name="LMUSIC"> F  </i>
   <v name="POMASS">     30.97400000</v>
   <v name="DARWINR">      0.00000000</v>
   <v name="DARWINV">      1.00000000</v>
   <i type="logical" name="LCORR"> T  </i>
  </separator>
  <i type="logical" name="GGA_COMPAT"> T  </i>
  <i type="logical" name="LBERRY"> F  </i>
  <i type="int" name="ICORELEVEL">     0</i>
  <i type="logical" name="LDAU"> F  </i>
  <i type="int" name="I_CONSTRAINED_M">     0</i>
  <separator name="electronic exchange-correlation" >
   <i type="string" name="GGA">--</i>
   <i type="int" name="VOSKOWN">     0</i>
   <i type="logical" name="LHFCALC"> F  </i>
   <i type="string" name="PRECFOCK"></i>
   <i type="logical" name="LSYMGRAD"> F  </i>
   <i type="logical" name="LHFONE"> F  </i>
   <i type="logical" name="LRHFCALC"> F  </i>
   <i type="logical" name="LTHOMAS"> F  </i>
   <i type="logical" name="LMODELHF"> F  </i>
   <i name="ENCUT4O">     -1.00000000</i>
   <i type="int" name="EXXOEP">     0</i>
   <i type="int" name="FOURORBIT">     0</i>
   <i name="AEXX">      0.00000000</i>
   <i name="HFALPHA">      0.00000000</i>
   <i name="MCALPHA">      0.00000000</i>
   <i name="ALDAX">      1.00000000</i>
   <i name="AGGAX">      1.00000000</i>
   <i name="ALDAC">      1.00000000</i>
   <i name="AGGAC">      1.00000000</i>
   <i type="int" name="NKREDX">     1</i>
   <i type="int" name="NKREDY">     1</i>
   <i type="int" name="NKREDZ">     1</i>
   <i type="logical" name="SHIFTRED"> F  </i>
   <i type="logical" name="ODDONLY"> F  </i>
   <i type="logical" name="EVENONLY"> F  </i>
   <i type="int" name="LMAXFOCK">     0</i>
   <i type="int" name="NMAXFOCKAE">     0</i>
   <i type="logical" name="LFOCKAEDFT"> F  </i>
   <i name="HFSCREEN">      0.00000000</i>
   <i name="HFSCREENC">      0.00000000</i>
   <i type="int" name="NBANDSGWLOW">     0</i>
  </separator>
  <separator name="vdW DFT" >
   <i type="logical" name="LUSE_VDW"> F  </i>
   <i name="Zab_VDW">     -0.84910000</i>
   <i name="PARAM1">      0.12340000</i>
   <i name="PARAM2">      1.00000000</i>
   <i name="PARAM3">      0.00000000</i>
  </separator>
  <separator name="model GW" >
   <i type="int" name="MODEL_GW">     0</i>
   <i name="MODEL_EPS0">     46.44959609</i>
   <i name="MODEL_ALPHA">      1.00000000</i>
  </separator>
  <separator name="linear response parameters" >
   <i type="logical" name="LEPSILON"> F  </i>
   <i type="logical" name="LRPA"> F  </i>
   <i type="logical" name="LNABLA"> F  </i>
   <i type="logical" name="LVEL"> F  </i>
   <i type="int" name="KINTER">     0</i>
   <i name="CSHIFT">      0.10000000</i>
   <i name="OMEGAMAX">     -1.00000000</i>
   <i name="DEG_THRESHOLD">      0.00200000</i>
  </separator>
  <separator name="orbital magnetization" >
   <i type="logical" name="NUCIND"> F  </i>
   <v name="MAGPOS">      0.00000000      0.00000000      0.00000000</v>
   <i type="logical" name="LNICSALL"> T  </i>
   <i type="logical" name="ORBITALMAG"> F  </i>
   <i type="logical" name="LMAGBLOCH"> F  </i>
   <i type="logical" name="LCHIMAG"> F  </i>
   <i type="logical" name="LGAUGE"> T  </i>
   <i type="int" name="MAGATOM">     0</i>
   <v name="MAGDIPOL">      0.00000000      0.00000000      0.00000000</v>
   <v name="AVECCONST">      0.00000000      0.00000000      0.00000000</v>
  </separator>
  <separator name="response functions" >
   <i type="logical" name="LADDER"> F  </i>
   <i type="logical" name="LFXC"> F  </i>
   <i type="logical" name="LHARTREE"> T  </i>
   <i type="int" name="IBSE">     0</i>
   <v type="int" name="KPOINT">    -1     0     0     0</v>
   <i type="logical" name="LTCTE"> F  </i>
   <i type="logical" name="LTETE"> F  </i>
   <i type="logical" name="LTRIPLET"> F  </i>
   <i type="logical" name="LFXCEPS"> F  </i>
   <i type="logical" name="LFXHEG"> F  </i>
   <i type="int" name="NATURALO">     0</i>
   <i type="logical" name="L2ORDER"> F  </i>
   <i type="logical" name="LUSEW"> F  </i>
   <i name="ENCUTGW">     -2.00000000</i>
   <i name="ENCUTGWSOFT">     -2.00000000</i>
   <i name="ENCUTLF">     -1.00000000</i>
   <i type="int" name="LMAXMP2">    -1</i>
   <i name="SCISSOR">      0.00000000</i>
   <i type="int" name="NOMEGA">     0</i>
   <i type="int" name="NOMEGAR">     0</i>
   <i type="int" name="NBANDSGW">    -1</i>
   <i type="int" name="NBANDSO">    -1</i>
   <i type="int" name="NBANDSV">    -1</i>
   <i type="int" name="NELM">   250</i>
   <i type="int" name="NELMHF">     1</i>
   <i type="int" name="DIM">     3</i>
   <i type="int" name="ANTIRES">     0</i>
   <i name="OMEGAMAX">    -30.00000000</i>
   <i name="OMEGAMIN">    -30.00000000</i>
   <i name="OMEGATL">   -200.00000000</i>
   <i type="int" name="OMEGAGRID">     0</i>
   <i name="CSHIFT">     -0.10000000</i>
   <i type="logical" name="SELFENERGY"> F  </i>
   <i type="logical" name="LSPECTRAL"> F  </i>
   <i type="logical" name="LSPECTRALGW"> F  </i>
   <i type="logical" name="LSINGLES"> F  </i>
   <i type="logical" name="LFERMIGW"> F  </i>
   <i type="logical" name="ODDONLYGW"> F  </i>
   <i type="logical" name="EVENONLYGW"> F  </i>
   <i type="int" name="NKREDLFX">     1</i>
   <i type="int" name="NKREDLFY">     1</i>
   <i type="int" name="NKREDLFZ">     1</i>
   <i type="int" name="MAXMEM">  1800</i>
   <i type="int" name="TELESCOPE">     0</i>
   <i type="int" name="TAUPAR">     1</i>
   <i type="int" name="OMEGAPAR">    -1</i>
   <i name="LAMBDA">      1.00000000</i>
  </separator>
  <separator name="External order field" >
   <i name="OFIELD_KAPPA">      0.00000000</i>
   <v name="OFIELD_K">      0.00000000      0.00000000      0.00000000</v>
   <i name="OFIELD_Q6_NEAR">      0.00000000</i>
   <i name="OFIELD_Q6_FAR">      0.00000000</i>
   <i name="OFIELD_A">      0.00000000</i>
  </separator>
 </parameters>
 <atominfo>
  <atoms>       4 </atoms>
  <types>       1 </types>
  <array name="atoms" >
   <dimension dim="1">ion</dimension>
   <field type="string">element</field>
   <field type="int">atomtype</field>
   <set>
    <rc><c>P </c><c>   1</c></rc>
    <rc><c>P </c><c>   1</c></rc>
    <rc><c>P </c><c>   1</c></rc>
    <rc><c>P </c><c>   1</c></rc>
   </set>
  </array>
  <array name="atomtypes" >
   <dimension dim="1">type</dimension>
   <field type="int">atomspertype</field>
   <field type="string">element</field>
   <field>mass</field>
   <field>valence</field>
   <field type="string">pseudopotential</field>
   <set>
    <rc><c>   4</c><c>P </c><c>     30.97400000</c><c>      5.00000000</c><c>  PAW_PBE P 06Sep2000                   </c></rc>
   </set>
  </array>
 </atominfo>
 <structure name="initialpos" >
  <crystal>
   <varray name="basis" >
    <v>       3.34593600       0.04909800       0.00000000 </v>
    <v>       0.06884500       4.62283800      -0.00005300 </v>
    <v>       0.00000000       0.00000000      20.02439000 </v>
   </varray>
   <i name="volume">    309.66397394 </i>
   <varray name="rec_basis" >
    <v>       0.29893536      -0.00445186       0.00000000 </v>
    <v>      -0.00317492       0.21636462       0.00000000 </v>
    <v>      -0.00000001       0.00000057       0.04993910 </v>
   </varray>
  </crystal>
  <varray name="positions" >
   <v>       0.50000000       0.91077300       0.55252100 </v>
   <v>       0.50000000       0.08922700       0.44747900 </v>
   <v>       0.00000000       0.41076900       0.44747900 </v>
   <v>       0.00000000       0.58923100       0.55252100 </v>
  </varray>
 </structure>
 <calculation>
  <scstep>
   <time name="dav">    1.49    1.49</time>
   <time name="total">    1.52    1.52</time>
   <energy>
    <i name="alphaZ">      5.18032828 </i>
    <i name="ewald">   1829.04393498 </i>
    <i name="hartreedc">  -2423.04911942 </i>
    <i name="XCdc">     12.89238029 </i>
    <i name="pawpsdc">    559.04011960 </i>
    <i name="pawaedc">   -526.39432044 </i>
    <i name="eentropy">     -0.00047119 </i>
    <i name="bandstr">    -27.56272122 </i>
    <i name="atom">    704.16778566 </i>
    <i name="e_fr_energy">    133.31791654 </i>
    <i name="e_wo_entrp">    133.31838773 </i>
    <i name="e_0_energy">    133.31815213 </i>
   </energy>
  </scstep>
  <scstep>
   <time name="dav">    1.99    1.99</time>
   <time name="total">    1.99    1.99</time>
   <energy>
    <i name="e_fr_energy">     -6.03569315 </i>
    <i name="e_wo_entrp">     -6.03569315 </i>
    <i name="e_0_energy">     -6.03569315 </i>
   </energy>
  </scstep>
  <scstep>
   <time name="dav">    1.84    1.84</time>
   <time name="total">    1.84    1.84</time>
   <energy>
    <i name="e_fr_energy">    -21.30146064 </i>
    <i name="e_wo_entrp">    -21.30146064 </i>
    <i name="e_0_energy">    -21.30146064 </i>
   </energy>
  </scstep>
  <scstep>
   <time name="dav">    1.88    1.88</time>
   <time name="total">    1.89    1.89</time>
   <energy>
    <i name="e_fr_energy">    -21.61471082 </i>
    <i name="e_wo_entrp">    -21.61471082 </i>
    <i name="e_0_energy">    -21.61471082 </i>
   </energy>
  </scstep>
  <scstep>
   <time name="dav">    1.97    1.97</time>
   <time name="total">    2.07    2.07</time>
   <energy>
    <i name="e_fr_energy">    -21.62467013 </i>
    <i name="e_wo_entrp">    -21.62467013 </i>
    <i name="e_0_energy">    -21.62467013 </i>
   </energy>
  </scstep>
  <scstep>
   <time name="dav">    1.80    1.80</time>
   <time name="total">    1.92    1.92</time>
   <energy>
    <i name="e_fr_energy">    -21.49031973 </i>
    <i name="e_wo_entrp">    -21.49031973 </i>
    <i name="e_0_energy">    -21.49031973 </i>
   </energy>
  </scstep>
  <scstep>
   <time name="dav">    1.74    1.74</time>
   <time name="total">    1.85    1.86</time>
   <energy>
    <i name="e_fr_energy">    -21.42504124 </i>
    <i name="e_wo_entrp">    -21.42504124 </i>
    <i name="e_0_energy">    -21.42504124 </i>
   </energy>
  </scstep>
  <scstep>
   <time name="dav">    1.82    1.82</time>
   <time name="total">    1.93    1.93</time>
   <energy>
    <i name="e_fr_energy">    -21.42465762 </i>
    <i name="e_wo_entrp">    -21.42465762 </i>
    <i name="e_0_energy">    -21.42465762 </i>
   </energy>
  </scstep>
  <scstep>
   <time name="dav">    2.11    2.11</time>
   <time name="total">    2.22    2.22</time>
   <energy>
    <i name="e_fr_energy">    -21.42452399 </i>
    <i name="e_wo_entrp">    -21.42452399 </i>
    <i name="e_0_energy">    -21.42452399 </i>
   </energy>
  </scstep>
  <scstep>
   <time name="dav">    1.82    1.82</time>
   <time name="total">    1.94    1.94</time>
   <energy>
    <i name="e_fr_energy">    -21.42437706 </i>
    <i name="e_wo_entrp">    -21.42437706 </i>
    <i name="e_0_energy">    -21.42437706 </i>
   </energy>
  </scstep>
  <scstep>
   <time name="dav">    1.80    1.80</time>
   <time name="total">    1.91    1.91</time>
   <energy>
    <i name="e_fr_energy">    -21.42430858 </i>
    <i name="e_wo_entrp">    -21.42430858 </i>
    <i name="e_0_energy">    -21.42430858 </i>
   </energy>
  </scstep>
  <scstep>
   <time name="dav">    1.62    1.62</time>
   <time name="total">    1.73    1.73</time>
   <energy>
    <i name="e_fr_energy">    -21.42467982 </i>
    <i name="e_wo_entrp">    -21.42467982 </i>
    <i name="e_0_energy">    -21.42467982 </i>
   </energy>
  </scstep>
  <scstep>
   <time name="dav">    1.61    1.61</time>
   <time name="total">    1.72    1.72</time>
   <energy>
    <i name="e_fr_energy">    -21.42477225 </i>
    <i name="e_wo_entrp">    -21.42477225 </i>
    <i name="e_0_energy">    -21.42477225 </i>
   </energy>
  </scstep>
  <scstep>
   <time name="dav">    1.50    1.50</time>
   <time name="total">    1.62    1.62</time>
   <energy>
    <i name="e_fr_energy">    -21.42490155 </i>
    <i name="e_wo_entrp">    -21.42490155 </i>
    <i name="e_0_energy">    -21.42490155 </i>
   </energy>
  </scstep>
  <scstep>
   <time name="dav">    1.56    1.56</time>
   <time name="total">    1.67    1.67</time>
   <energy>
    <i name="e_fr_energy">    -21.42493101 </i>
    <i name="e_wo_entrp">    -21.42493101 </i>
    <i name="e_0_energy">    -21.42493101 </i>
   </energy>
  </scstep>
  <scstep>
   <time name="dav">    1.47    1.47</time>
   <time name="total">    1.58    1.59</time>
   <energy>
    <i name="e_fr_energy">    -21.42495935 </i>
    <i name="e_wo_entrp">    -21.42495935 </i>
    <i name="e_0_energy">    -21.42495935 </i>
   </energy>
  </scstep>
  <scstep>
   <time name="dav">    1.47    1.47</time>
   <time name="total">    1.49    1.49</time>
   <energy>
    <i name="alphaZ">      5.18032828 </i>
    <i name="ewald">   1829.04393498 </i>
    <i name="hartreedc">  -2437.75524366 </i>
    <i name="XCdc">     13.93739077 </i>
    <i name="pawpsdc">   2042.47516240 </i>
    <i name="pawaedc">  -2010.14718393 </i>
    <i name="eentropy">     -0.00000000 </i>
    <i name="bandstr">   -168.32713688 </i>
    <i name="atom">    704.16778566 </i>
    <i name="e_fr_energy">    -21.42496238 </i>
    <i name="e_wo_entrp">    -21.42496238 </i>
    <i name="e_0_energy">    -21.42496238 </i>
   </energy>
  </scstep>
  <structure>
   <crystal>
    <varray name="basis" >
     <v>       3.34593600       0.04909800       0.00000000 </v>
     <v>       0.06884500       4.62283800      -0.00005300 </v>
     <v>       0.00000000       0.00000000      20.02439000 </v>
    </varray>
    <i name="volume">    309.66397394 </i>
    <varray name="rec_basis" >
     <v>       0.29893536      -0.00445186       0.00000000 </v>
     <v>      -0.00317492       0.21636462       0.00000000 </v>
     <v>      -0.00000001       0.00000057       0.04993910 </v>
    </varray>
   </crystal>
   <varray name="positions" >
    <v>       0.50000000       0.91077300       0.55252100 </v>
    <v>       0.50000000       0.08922700       0.44747900 </v>
    <v>       0.00000000       0.41076900       0.44747900 </v>
    <v>       0.00000000       0.58923100       0.55252100 </v>
   </varray>
  </structure>
  <varray name="forces" >
   <v>      -0.34879033      -0.02355060      -0.02252915 </v>
   <v>       0.34879033       0.02355060       0.02252915 </v>
   <v>      -0.34878689      -0.02358197       0.02253282 </v>
   <v>       0.34878689       0.02358197      -0.02253282 </v>
  </varray>
  <varray name="stress" >
   <v>      -6.82098029      -7.83842889       0.00005020 </v>
   <v>      -7.83842897      -1.59357984       0.00035339 </v>
   <v>       0.00005019       0.00035332      -0.55364128 </v>
  </varray>
  <energy>
   <i name="e_fr_energy">    -21.42496238 </i>
   <i name="e_wo_entrp">    -21.42496238 </i>
   <i name="e_0_energy">     -0.00000000 </i>
  </energy>
  <time name="totalsc">   31.68   31.72</time>
 </calculation>
 <calculation>
  <scstep>
   <time name="dav">    1.53    1.53</time>
   <time name="total">    1.64    1.65</time>
   <energy>
    <i name="alphaZ">      5.18032828 </i>
    <i name="ewald">   1829.62729442 </i>
    <i name="hartreedc">  -2438.33805619 </i>
    <i name="XCdc">     13.94200742 </i>
    <i name="pawpsdc">   2042.18980779 </i>
    <i name="pawaedc">  -2009.86187065 </i>
    <i name="eentropy">     -0.00000000 </i>
    <i name="bandstr">   -168.34140335 </i>
    <i name="atom">    704.16778566 </i>
    <i name="e_fr_energy">    -21.43410663 </i>
    <i name="e_wo_entrp">    -21.43410663 </i>
    <i name="e_0_energy">    -21.43410663 </i>
   </energy>
  </scstep>
  <scstep>
   <time name="dav">    1.84    1.84</time>
   <time name="total">    1.95    1.95</time>
   <energy>
    <i name="e_fr_energy">    -21.43541621 </i>
    <i name="e_wo_entrp">    -21.43541621 </i>
    <i name="e_0_energy">    -21.43541621 </i>
   </energy>
  </scstep>
  <scstep>
   <time name="dav">    1.96    1.96</time>
   <time name="total">    2.07    2.07</time>
   <energy>
    <i name="e_fr_energy">    -21.43534693 </i>
    <i name="e_wo_entrp">    -21.43534693 </i>
    <i name="e_0_energy">    -21.43534693 </i>
   </energy>
  </scstep>
  <scstep>
   <time name="dav">    1.82    1.82</time>
   <time name="total">    1.93    1.93</time>
   <energy>
    <i name="e_fr_energy">    -21.43533230 </i>
    <i name="e_wo_entrp">    -21.43533230 </i>
    <i name="e_0_energy">    -21.43533230 </i>
   </energy>
  </scstep>
  <scstep>
   <time name="dav">    1.42    1.42</time>
   <time name="total">    1.53    1.53</time>
   <energy>
    <i name="e_fr_energy">    -21.43533449 </i>
    <i name="e_wo_entrp">    -21.43533449 </i>
    <i name="e_0_energy">    -21.43533449 </i>
   </energy>
  </scstep>
  <scstep>
   <time name="dav">    1.24    1.24</time>
   <time name="total">    1.27    1.27</time>
   <energy>
    <i name="alphaZ">      5.18032828 </i>
    <i name="ewald">   1829.62729442 </i>
    <i name="hartreedc">  -2438.33159501 </i>
    <i name="XCdc">     13.94124550 </i>
    <i name="pawpsdc">   2042.52040357 </i>
    <i name="pawaedc">  -2010.19224350 </i>
    <i name="eentropy">     -0.00000000 </i>
    <i name="bandstr">   -168.34855418 </i>
    <i name="atom">    704.16778566 </i>
    <i name="e_fr_energy">    -21.43533526 </i>
    <i name="e_wo_entrp">    -21.43533526 </i>
    <i name="e_0_energy">    -21.43533526 </i>
   </energy>
  </scstep>
  <structure>
   <crystal>
    <varray name="basis" >
     <v>       3.34593600       0.04909800       0.00000000 </v>
     <v>       0.06884500       4.62283800      -0.00005300 </v>
     <v>       0.00000000       0.00000000      20.02439000 </v>
    </varray>
    <i name="volume">    309.66397394 </i>
    <varray name="rec_basis" >
     <v>       0.29893536      -0.00445186       0.00000000 </v>
     <v>      -0.00317492       0.21636462       0.00000000 </v>
     <v>      -0.00000001       0.00000057       0.04993910 </v>
    </varray>
   </crystal>
   <varray name="positions" >
    <v>       0.49698500       0.91065756       0.55248843 </v>
    <v>       0.50301500       0.08934244       0.44751157 </v>
    <v>      -0.00301497       0.41065336       0.44751157 </v>
    <v>       0.00301497       0.58934664       0.55248843 </v>
   </varray>
  </structure>
  <varray name="forces" >
   <v>      -0.15745205      -0.03092430      -0.01692123 </v>
   <v>       0.15745205       0.03092430       0.01692123 </v>
   <v>      -0.15744985      -0.03095053       0.01692252 </v>
   <v>       0.15744985       0.03095053      -0.01692252 </v>
  </varray>
  <varray name="stress" >
   <v>      -7.10294400      -5.36846411       0.00003379 </v>
   <v>      -5.36846420      -1.59784559       0.00030084 </v>
   <v>       0.00003384       0.00030076      -0.44203631 </v>
  </varray>
  <energy>
   <i name="e_fr_energy">    -21.43533526 </i>
   <i name="e_wo_entrp">    -21.43533526 </i>
   <i name="e_0_energy">     -0.00000000 </i>
  </energy>
  <time name="totalsc">   11.17   11.19</time>
 </calculation>
 <calculation>
  <scstep>
   <time name="dav">    1.53    1.54</time>
   <time name="total">    1.65    1.65</time>
   <energy>
    <i name="alphaZ">      5.18032828 </i>
    <i name="ewald">   1830.14562721 </i>
    <i name="hartreedc">  -2438.82256744 </i>
    <i name="XCdc">     13.94550298 </i>
    <i name="pawpsdc">   2042.53576789 </i>
    <i name="pawaedc">  -2010.20760279 </i>
    <i name="eentropy">     -0.00000000 </i>
    <i name="bandstr">   -168.38202695 </i>
    <i name="atom">    704.16778566 </i>
    <i name="e_fr_energy">    -21.43718516 </i>
    <i name="e_wo_entrp">    -21.43718516 </i>
    <i name="e_0_energy">    -21.43718516 </i>
   </energy>
  </scstep>
  <scstep>
   <time name="dav">    1.83    1.83</time>
   <time name="total">    1.94    1.94</time>
   <energy>
    <i name="e_fr_energy">    -21.43811509 </i>
    <i name="e_wo_entrp">    -21.43811509 </i>
    <i name="e_0_energy">    -21.43811509 </i>
   </energy>
  </scstep>
  <scstep>
   <time name="dav">    1.97    1.97</time>
   <time name="total">    2.08    2.08</time>
   <energy>
    <i name="e_fr_energy">    -21.43806573 </i>
    <i name="e_wo_entrp">    -21.43806573 </i>
    <i name="e_0_energy">    -21.43806573 </i>
   </energy>
  </scstep>
  <scstep>
   <time name="dav">    1.82    1.82</time>
   <time name="total">    1.93    1.94</time>
   <energy>
    <i name="e_fr_energy">    -21.43805522 </i>
    <i name="e_wo_entrp">    -21.43805522 </i>
    <i name="e_0_energy">    -21.43805522 </i>
   </energy>
  </scstep>
  <scstep>
   <time name="dav">    1.26    1.26</time>
   <time name="total">    1.37    1.38</time>
   <energy>
    <i name="e_fr_energy">    -21.43805623 </i>
    <i name="e_wo_entrp">    -21.43805623 </i>
    <i name="e_0_energy">    -21.43805623 </i>
   </energy>
  </scstep>
  <scstep>
   <time name="dav">    1.20    1.20</time>
   <time name="total">    1.22    1.22</time>
   <energy>
    <i name="alphaZ">      5.18032828 </i>
    <i name="ewald">   1830.14562721 </i>
    <i name="hartreedc">  -2438.82012716 </i>
    <i name="XCdc">     13.94528547 </i>
    <i name="pawpsdc">   2043.88974490 </i>
    <i name="pawaedc">  -2011.56189852 </i>
    <i name="eentropy">     -0.00000000 </i>
    <i name="bandstr">   -168.38480234 </i>
    <i name="atom">    704.16778566 </i>
    <i name="e_fr_energy">    -21.43805650 </i>
    <i name="e_wo_entrp">    -21.43805650 </i>
    <i name="e_0_energy">    -21.43805650 </i>
   </energy>
  </scstep>
  <structure>
   <crystal>
    <varray name="basis" >
     <v>       3.34593600       0.04909800       0.00000000 </v>
     <v>       0.06884500       4.62283800      -0.00005300 </v>
     <v>       0.00000000       0.00000000      20.02439000 </v>
    </varray>
    <i name="volume">    309.66397394 </i>
    <varray name="rec_basis" >
     <v>       0.29893536      -0.00445186       0.00000000 </v>
     <v>      -0.00317492       0.21636462       0.00000000 </v>
     <v>      -0.00000001       0.00000057       0.04993910 </v>
    </varray>
   </crystal>
   <varray name="positions" >
    <v>       0.49445201       0.91056058       0.55246107 </v>
    <v>       0.50554799       0.08943942       0.44753893 </v>
    <v>      -0.00554793       0.41055622       0.44753894 </v>
    <v>       0.00554793       0.58944378       0.55246106 </v>
   </varray>
  </structure>
  <varray name="forces" >
   <v>       0.00382006      -0.02897236      -0.01248114 </v>
   <v>      -0.00382006       0.02897236       0.01248114 </v>
   <v>       0.00382163      -0.02899434       0.01248017 </v>
   <v>      -0.00382163       0.02899434      -0.01248017 </v>
  </varray>
  <varray name="stress" >
   <v>      -7.23395715      -3.29709579       0.00001835 </v>
   <v>      -3.29709583      -1.47107049       0.00025380 </v>
   <v>       0.00001830       0.00025370      -0.34549233 </v>
  </varray>
  <energy>
   <i name="e_fr_energy">    -21.43805650 </i>
   <i name="e_wo_entrp">    -21.43805650 </i>
   <i name="e_0_energy">     -0.00000000 </i>
  </energy>
  <time name="totalsc">   10.98   10.99</time>
 </calculation>
 <calculation>
  <scstep>
   <time name="dav">    1.19    1.19</time>
   <time name="total">    1.30    1.30</time>
   <energy>
    <i name="alphaZ">      5.18032828 </i>
    <i name="ewald">   1830.14215689 </i>
    <i name="hartreedc">  -2438.81571362 </i>
    <i name="XCdc">     13.94523691 </i>
    <i name="pawpsdc">   2043.90408935 </i>
    <i name="pawaedc">  -2011.57623748 </i>
    <i name="eentropy">     -0.00000000 </i>
    <i name="bandstr">   -168.38570262 </i>
    <i name="atom">    704.16778566 </i>
    <i name="e_fr_energy">    -21.43805663 </i>
    <i name="e_wo_entrp">    -21.43805663 </i>
    <i name="e_0_energy">    -21.43805663 </i>
   </energy>
  </scstep>
  <scstep>
   <time name="dav">    1.15    1.15</time>
   <time name="total">    1.26    1.26</time>
   <energy>
    <i name="e_fr_energy">    -21.43805676 </i>
    <i name="e_wo_entrp">    -21.43805676 </i>
    <i name="e_0_energy">    -21.43805676 </i>
   </energy>
  </scstep>
  <scstep>
   <time name="dav">    1.11    1.11</time>
   <time name="total">    1.22    1.22</time>
   <energy>
    <i name="e_fr_energy">    -21.43805680 </i>
    <i name="e_wo_entrp">    -21.43805680 </i>
    <i name="e_0_energy">    -21.43805680 </i>
   </energy>
  </scstep>
  <scstep>
   <time name="dav">    1.16    1.16</time>
   <time name="total">    1.27    1.27</time>
   <energy>
    <i name="e_fr_energy">    -21.43805691 </i>
    <i name="e_wo_entrp">    -21.43805691 </i>
    <i name="e_0_energy">    -21.43805691 </i>
   </energy>
  </scstep>
  <scstep>
   <time name="dav">    1.17    1.17</time>
   <time name="total">    1.29    1.29</time>
   <energy>
    <i name="e_fr_energy">    -21.43805702 </i>
    <i name="e_wo_entrp">    -21.43805702 </i>
    <i name="e_0_energy">    -21.43805702 </i>
   </energy>
  </scstep>
  <scstep>
   <time name="dav">    1.12    1.12</time>
   <time name="total">    1.14    1.14</time>
   <energy>
    <i name="alphaZ">      5.18032828 </i>
    <i name="ewald">   1830.14215689 </i>
    <i name="hartreedc">  -2438.81399595 </i>
    <i name="XCdc">     13.94521484 </i>
    <i name="pawpsdc">   2043.89833372 </i>
    <i name="pawaedc">  -2011.57047879 </i>
    <i name="eentropy">     -0.00000000 </i>
    <i name="bandstr">   -168.38740172 </i>
    <i name="atom">    704.16778566 </i>
    <i name="e_fr_energy">    -21.43805706 </i>
    <i name="e_wo_entrp">    -21.43805706 </i>
    <i name="e_0_energy">    -21.43805706 </i>
   </energy>
  </scstep>
  <structure>
   <crystal>
    <varray name="basis" >
     <v>       3.34593600       0.04909800       0.00000000 </v>
     <v>       0.06884500       4.62283800      -0.00005300 </v>
     <v>       0.00000000       0.00000000      20.02439000 </v>
    </varray>
    <i name="volume">    309.66397394 </i>
    <varray name="rec_basis" >
     <v>       0.29893536      -0.00445186       0.00000000 </v>
     <v>      -0.00317492       0.21636462       0.00000000 </v>
     <v>      -0.00000001       0.00000057       0.04993910 </v>
    </varray>
   </crystal>
   <varray name="positions" >
    <v>       0.49446856       0.91056121       0.55246125 </v>
    <v>       0.50553144       0.08943879       0.44753875 </v>
    <v>      -0.00553138       0.41055685       0.44753876 </v>
    <v>       0.00553138       0.58944315       0.55246124 </v>
   </varray>
  </structure>
  <varray name="forces" >
   <v>       0.00237983      -0.02902298      -0.01255854 </v>
   <v>      -0.00237983       0.02902298       0.01255854 </v>
   <v>       0.00238162      -0.02904498       0.01255768 </v>
   <v>      -0.00238162       0.02904498      -0.01255768 </v>
  </varray>
  <varray name="stress" >
   <v>      -7.23321478      -3.32253809       0.00001696 </v>
   <v>      -3.32253813      -1.47187698       0.00025294 </v>
   <v>       0.00001699       0.00025290      -0.34279797 </v>
  </varray>
  <energy>
   <i name="e_fr_energy">    -21.43805706 </i>
   <i name="e_wo_entrp">    -21.43805706 </i>
   <i name="e_0_energy">     -0.00000000 </i>
  </energy>
  <time name="totalsc">    8.26    8.27</time>
 </calculation>
 <calculation>
  <scstep>
   <time name="dav">    1.55    1.55</time>
   <time name="total">    1.66    1.66</time>
   <energy>
    <i name="alphaZ">      5.18032828 </i>
    <i name="ewald">   1830.67455812 </i>
    <i name="hartreedc">  -2439.27785937 </i>
    <i name="XCdc">     13.95229885 </i>
    <i name="pawpsdc">   2043.89802669 </i>
    <i name="pawaedc">  -2011.57017202 </i>
    <i name="eentropy">     -0.00000000 </i>
    <i name="bandstr">   -168.46310388 </i>
    <i name="atom">    704.16778566 </i>
    <i name="e_fr_energy">    -21.43813767 </i>
    <i name="e_wo_entrp">    -21.43813767 </i>
    <i name="e_0_energy">    -21.43813767 </i>
   </energy>
  </scstep>
  <scstep>
   <time name="dav">    1.87    1.87</time>
   <time name="total">    1.99    1.99</time>
   <energy>
    <i name="e_fr_energy">    -21.43815333 </i>
    <i name="e_wo_entrp">    -21.43815333 </i>
    <i name="e_0_energy">    -21.43815333 </i>
   </energy>
  </scstep>
  <scstep>
   <time name="dav">    1.24    1.24</time>
   <time name="total">    1.35    1.35</time>
   <energy>
    <i name="e_fr_energy">    -21.43815352 </i>
    <i name="e_wo_entrp">    -21.43815352 </i>
    <i name="e_0_energy">    -21.43815352 </i>
   </energy>
  </scstep>
  <scstep>
   <time name="dav">    1.20    1.20</time>
   <time name="total">    1.31    1.31</time>
   <energy>
    <i name="e_fr_energy">    -21.43815410 </i>
    <i name="e_wo_entrp">    -21.43815410 </i>
    <i name="e_0_energy">    -21.43815410 </i>
   </energy>
  </scstep>
  <scstep>
   <time name="dav">    1.09    1.09</time>
   <time name="total">    1.20    1.21</time>
   <energy>
    <i name="e_fr_energy">    -21.43815395 </i>
    <i name="e_wo_entrp">    -21.43815395 </i>
    <i name="e_0_energy">    -21.43815395 </i>
   </energy>
  </scstep>
  <scstep>
   <time name="dav">    1.06    1.06</time>
   <time name="total">    1.09    1.09</time>
   <energy>
    <i name="alphaZ">      5.18032828 </i>
    <i name="ewald">   1830.67455812 </i>
    <i name="hartreedc">  -2439.27840372 </i>
    <i name="XCdc">     13.95296560 </i>
    <i name="pawpsdc">   2047.89383118 </i>
    <i name="pawaedc">  -2015.56752635 </i>
    <i name="eentropy">     -0.00000000 </i>
    <i name="bandstr">   -168.46169272 </i>
    <i name="atom">    704.16778566 </i>
    <i name="e_fr_energy">    -21.43815395 </i>
    <i name="e_wo_entrp">    -21.43815395 </i>
    <i name="e_0_energy">    -21.43815395 </i>
   </energy>
  </scstep>
  <structure>
   <crystal>
    <varray name="basis" >
     <v>       3.34593600       0.04909800       0.00000000 </v>
     <v>       0.06884500       4.62283800      -0.00005300 </v>
     <v>       0.00000000       0.00000000      20.02439000 </v>
    </varray>
    <i name="volume">    309.66397394 </i>
    <varray name="rec_basis" >
     <v>       0.29893536      -0.00445186       0.00000000 </v>
     <v>      -0.00317492       0.21636462       0.00000000 </v>
     <v>      -0.00000001       0.00000057       0.04993910 </v>
    </varray>
   </crystal>
   <varray name="positions" >
    <v>       0.49447202       0.91034789       0.55243980 </v>
    <v>       0.50552798       0.08965211       0.44756020 </v>
    <v>      -0.00552789       0.41034337       0.44756021 </v>
    <v>       0.00552789       0.58965663       0.55243979 </v>
   </varray>
  </structure>
  <varray name="forces" >
   <v>       0.00185723      -0.00953786      -0.00939017 </v>
   <v>      -0.00185723       0.00953786       0.00939017 </v>
   <v>       0.00185879      -0.00955559       0.00938953 </v>
   <v>      -0.00185879       0.00955559      -0.00938953 </v>
  </varray>
  <varray name="stress" >
   <v>      -7.14482018      -3.32957525       0.00002003 </v>
   <v>      -3.32957530      -1.17164478       0.00020462 </v>
   <v>       0.00002001       0.00020460      -0.28005919 </v>
  </varray>
  <energy>
   <i name="e_fr_energy">    -21.43815395 </i>
   <i name="e_wo_entrp">    -21.43815395 </i>
   <i name="e_0_energy">     -0.00000000 </i>
  </energy>
  <time name="totalsc">    9.38    9.39</time>
 </calculation>
 <calculation>
  <scstep>
   <time name="dav">    1.55    1.55</time>
   <time name="total">    1.66    1.66</time>
   <energy>
    <i name="alphaZ">      5.18032828 </i>
    <i name="ewald">   1831.02245534 </i>
    <i name="hartreedc">  -2439.58080730 </i>
    <i name="XCdc">     13.95759680 </i>
    <i name="pawpsdc">   2047.99840135 </i>
    <i name="pawaedc">  -2015.67209620 </i>
    <i name="eentropy">     -0.00000000 </i>
    <i name="bandstr">   -168.51182963 </i>
    <i name="atom">    704.16778566 </i>
    <i name="e_fr_energy">    -21.43816570 </i>
    <i name="e_wo_entrp">    -21.43816570 </i>
    <i name="e_0_energy">    -21.43816570 </i>
   </energy>
  </scstep>
  <scstep>
   <time name="dav">    1.87    1.87</time>
   <time name="total">    1.98    1.98</time>
   <energy>
    <i name="e_fr_energy">    -21.43817264 </i>
    <i name="e_wo_entrp">    -21.43817264 </i>
    <i name="e_0_energy">    -21.43817264 </i>
   </energy>
  </scstep>
  <scstep>
   <time name="dav">    1.18    1.18</time>
   <time name="total">    1.29    1.29</time>
   <energy>
    <i name="e_fr_energy">    -21.43817281 </i>
    <i name="e_wo_entrp">    -21.43817281 </i>
    <i name="e_0_energy">    -21.43817281 </i>
   </energy>
  </scstep>
  <scstep>
   <time name="dav">    1.16    1.16</time>
   <time name="total">    1.27    1.28</time>
   <energy>
    <i name="e_fr_energy">    -21.43817321 </i>
    <i name="e_wo_entrp">    -21.43817321 </i>
    <i name="e_0_energy">    -21.43817321 </i>
   </energy>
  </scstep>
  <scstep>
   <time name="dav">    1.05    1.05</time>
   <time name="total">    1.17    1.17</time>
   <energy>
    <i name="e_fr_energy">    -21.43817312 </i>
    <i name="e_wo_entrp">    -21.43817312 </i>
    <i name="e_0_energy">    -21.43817312 </i>
   </energy>
  </scstep>
  <scstep>
   <time name="dav">    1.06    1.06</time>
   <time name="total">    1.08    1.08</time>
   <energy>
    <i name="alphaZ">      5.18032828 </i>
    <i name="ewald">   1831.02245534 </i>
    <i name="hartreedc">  -2439.57892987 </i>
    <i name="XCdc">     13.95802907 </i>
    <i name="pawpsdc">   2050.80656563 </i>
    <i name="pawaedc">  -2018.48127154 </i>
    <i name="eentropy">     -0.00000000 </i>
    <i name="bandstr">   -168.51313571 </i>
    <i name="atom">    704.16778566 </i>
    <i name="e_fr_energy">    -21.43817314 </i>
    <i name="e_wo_entrp">    -21.43817314 </i>
    <i name="e_0_energy">    -21.43817314 </i>
   </energy>
  </scstep>
  <structure>
   <crystal>
    <varray name="basis" >
     <v>       3.34593600       0.04909800       0.00000000 </v>
     <v>       0.06884500       4.62283800      -0.00005300 </v>
     <v>       0.00000000       0.00000000      20.02439000 </v>
    </varray>
    <i name="volume">    309.66397394 </i>
    <varray name="rec_basis" >
     <v>       0.29893536      -0.00445186       0.00000000 </v>
     <v>      -0.00317492       0.21636462       0.00000000 </v>
     <v>      -0.00000001       0.00000057       0.04993910 </v>
    </varray>
   </crystal>
   <varray name="positions" >
    <v>       0.49447429       0.91020854       0.55242578 </v>
    <v>       0.50552571       0.08979146       0.44757422 </v>
    <v>      -0.00552562       0.41020391       0.44757422 </v>
    <v>       0.00552562       0.58979609       0.55242578 </v>
   </varray>
  </structure>
  <varray name="forces" >
   <v>       0.00148320       0.00311953      -0.00742384 </v>
   <v>      -0.00148320      -0.00311953       0.00742384 </v>
   <v>       0.00148461       0.00310452       0.00742338 </v>
   <v>      -0.00148461      -0.00310452      -0.00742338 </v>
  </varray>
  <varray name="stress" >
   <v>      -7.08679611      -3.33449493       0.00002204 </v>
   <v>      -3.33449485      -0.97491214       0.00017250 </v>
   <v>       0.00002208       0.00017248      -0.23556134 </v>
  </varray>
  <energy>
   <i name="e_fr_energy">    -21.43817314 </i>
   <i name="e_wo_entrp">    -21.43817314 </i>
   <i name="e_0_energy">     -0.00000000 </i>
  </energy>
  <time name="totalsc">    9.17    9.18</time>
  <eigenvalues>
   <array>
    <dimension dim="1">band</dimension>
    <dimension dim="2">kpoint</dimension>
    <dimension dim="3">spin</dimension>
    <field>eigene</field>
    <field>occ</field>
    <set>
     <set comment="spin 1">
      <set comment="kpoint 1">
       <r>  -17.1770    1.0000 </r>
       <r>  -14.6962    1.0000 </r>
       <r>  -11.4810    1.0000 </r>
       <r>   -7.8966    1.0000 </r>
       <r>   -6.9941    1.0000 </r>
       <r>   -6.7262    1.0000 </r>
       <r>   -5.7798    1.0000 </r>
       <r>   -4.1970    1.0000 </r>
       <r>   -3.8813    1.0000 </r>
       <r>   -2.3091    1.0000 </r>
       <r>   -1.3314    0.0000 </r>
       <r>   -0.8531    0.0000 </r>
       <r>    0.0884    0.0000 </r>
       <r>    0.8707    0.0000 </r>
       <r>    2.1322    0.0000 </r>
       <r>    2.2788    0.0000 </r>
      </set>
      <set comment="kpoint 2">
       <r>  -17.1509    1.0000 </r>
       <r>  -14.6689    1.0000 </r>
       <r>  -11.4933    1.0000 </r>
       <r>   -7.8771    1.0000 </r>
       <r>   -7.0201    1.0000 </r>
       <r>   -6.7035    1.0000 </r>
       <r>   -5.9385    1.0000 </r>
       <r>   -4.3622    1.0000 </r>
       <r>   -3.8724    1.0000 </r>
       <r>   -2.3124    1.0000 </r>
       <r>   -1.3073    0.0000 </r>
       <r>   -0.6233    0.0000 </r>
       <r>    0.2900    0.0000 </r>
       <r>    0.7450    0.0000 </r>
       <r>    2.1592    0.0000 </r>
       <r>    2.3080    0.0000 </r>
      </set>
      <set comment="kpoint 3">
       <r>  -17.0726    1.0000 </r>
       <r>  -14.5870    1.0000 </r>
       <r>  -11.5354    1.0000 </r>
       <r>   -7.8191    1.0000 </r>
       <r>   -7.1190    1.0000 </r>
       <r>   -6.6376    1.0000 </r>
       <r>   -6.3252    1.0000 </r>
       <r>   -4.7379    1.0000 </r>
       <r>   -3.8487    1.0000 </r>
       <r>   -2.3395    1.0000 </r>
       <r>   -1.2352    0.0000 </r>
       <r>   -0.0042    0.0000 </r>
       <r>    0.2667    0.0000 </r>
       <r>    0.9517    0.0000 </r>
       <r>    2.2345    0.0000 </r>
       <r>    2.3954    0.0000 </r>
      </set>
      <set comment="kpoint 4">
       <r>  -16.9427    1.0000 </r>
       <r>  -14.4506    1.0000 </r>
       <r>  -11.6226    1.0000 </r>
       <r>   -7.7252    1.0000 </r>
       <r>   -7.3491    1.0000 </r>
       <r>   -6.7991    1.0000 </r>
       <r>   -6.5147    1.0000 </r>
       <r>   -5.1066    1.0000 </r>
       <r>   -3.8226    1.0000 </r>
       <r>   -2.4093    1.0000 </r>
       <r>   -1.1166    0.0000 </r>
       <r>   -0.1830    0.0000 </r>
       <r>    0.8659    0.0000 </r>
       <r>    1.5472    0.0000 </r>
       <r>    2.2690    0.0000 </r>
       <r>    2.5408    0.0000 </r>
      </set>
      <set comment="kpoint 5">
       <r>  -16.7616    1.0000 </r>
       <r>  -14.2601    1.0000 </r>
       <r>  -11.7773    1.0000 </r>
       <r>   -7.7592    1.0000 </r>
       <r>   -7.6000    1.0000 </r>
       <r>   -7.2167    1.0000 </r>
       <r>   -6.3634    1.0000 </r>
       <r>   -5.3223    1.0000 </r>
       <r>   -3.8173    1.0000 </r>
       <r>   -2.5311    1.0000 </r>
       <r>   -0.9550    0.0000 </r>
       <r>   -0.6277    0.0000 </r>
       <r>    1.6516    0.0000 </r>
       <r>    1.8270    0.0000 </r>
       <r>    1.8629    0.0000 </r>
       <r>    2.6620    0.0000 </r>
      </set>
      <set comment="kpoint 6">
       <r>  -16.5304    1.0000 </r>
       <r>  -14.0160    1.0000 </r>
       <r>  -12.0201    1.0000 </r>
       <r>   -8.3194    1.0000 </r>
       <r>   -7.5243    1.0000 </r>
       <r>   -7.4517    1.0000 </r>
       <r>   -6.1716    1.0000 </r>
       <r>   -5.3704    1.0000 </r>
       <r>   -3.8652    1.0000 </r>
       <r>   -2.7118    1.0000 </r>
       <r>   -0.9666    0.0000 </r>
       <r>   -0.7589    0.0000 </r>
       <r>    1.1556    0.0000 </r>
       <r>    1.2869    0.0000 </r>
       <r>    2.4425    0.0000 </r>
       <r>    2.9120    0.0000 </r>
      </set>
      <set comment="kpoint 7">
       <r>  -16.2505    1.0000 </r>
       <r>  -13.7188    1.0000 </r>
       <r>  -12.3568    1.0000 </r>
       <r>   -8.9562    1.0000 </r>
       <r>   -7.6900    1.0000 </r>
       <r>   -7.2940    1.0000 </r>
       <r>   -5.9483    1.0000 </r>
       <r>   -5.3085    1.0000 </r>
       <r>   -3.9889    1.0000 </r>
       <r>   -2.9516    1.0000 </r>
       <r>   -1.1371    0.0000 </r>
       <r>   -0.5542    0.0000 </r>
       <r>    0.5484    0.0000 </r>
       <r>    0.7818    0.0000 </r>
       <r>    2.0909    0.0000 </r>
       <r>    3.1961    0.0000 </r>
      </set>
      <set comment="kpoint 8">
       <r>  -15.9237    1.0000 </r>
       <r>  -13.3701    1.0000 </r>
       <r>  -12.7717    1.0000 </r>
       <r>   -9.6143    1.0000 </r>
       <r>   -7.7187    1.0000 </r>
       <r>   -7.1503    1.0000 </r>
       <r>   -5.7044    1.0000 </r>
       <r>   -5.1929    1.0000 </r>
       <r>   -4.1681    1.0000 </r>
       <r>   -3.2407    1.0000 </r>
       <r>   -1.1245    0.0000 </r>
       <r>   -0.4419    0.0000 </r>
       <r>   -0.0199    0.0000 </r>
       <r>    0.4567    0.0000 </r>
       <r>    1.6091    0.0000 </r>
       <r>    2.9201    0.0000 </r>
      </set>
      <set comment="kpoint 9">
       <r>  -15.5528    1.0000 </r>
       <r>  -13.2448    1.0000 </r>
       <r>  -12.9631    1.0000 </r>
       <r>  -10.2629    1.0000 </r>
       <r>   -7.6379    1.0000 </r>
       <r>   -7.0552    1.0000 </r>
       <r>   -5.4565    1.0000 </r>
       <r>   -5.0693    1.0000 </r>
       <r>   -4.3337    1.0000 </r>
       <r>   -3.5577    1.0000 </r>
       <r>   -0.9621    0.0000 </r>
       <r>   -0.5930    0.0000 </r>
       <r>   -0.4899    0.0000 </r>
       <r>    0.5062    0.0000 </r>
       <r>    1.1173    0.0000 </r>
       <r>    2.5268    0.0000 </r>
      </set>
      <set comment="kpoint 10">
       <r>  -15.1415    1.0000 </r>
       <r>  -13.7317    1.0000 </r>
       <r>  -12.5150    1.0000 </r>
       <r>  -10.8852    1.0000 </r>
       <r>   -7.4847    1.0000 </r>
       <r>   -7.0467    1.0000 </r>
       <r>   -5.2297    1.0000 </r>
       <r>   -4.9815    1.0000 </r>
       <r>   -4.4061    1.0000 </r>
       <r>   -3.8727    1.0000 </r>
       <r>   -0.8803    0.0000 </r>
       <r>   -0.8492    0.0000 </r>
       <r>   -0.6293    0.0000 </r>
       <r>    0.5984    0.0000 </r>
       <r>    0.8346    0.0000 </r>
       <r>    2.0871    0.0000 </r>
      </set>
      <set comment="kpoint 11">
       <r>  -14.6951    1.0000 </r>
       <r>  -14.2213    1.0000 </r>
       <r>  -12.0162    1.0000 </r>
       <r>  -11.4716    1.0000 </r>
       <r>   -7.3018    1.0000 </r>
       <r>   -7.1386    1.0000 </r>
       <r>   -5.0570    1.0000 </r>
       <r>   -4.9705    1.0000 </r>
       <r>   -4.3405    1.0000 </r>
       <r>   -4.1484    1.0000 </r>
       <r>   -1.0335    0.0000 </r>
       <r>   -1.0205    0.0000 </r>
       <r>   -0.2805    0.0000 </r>
       <r>    0.1452    0.0000 </r>
       <r>    1.2089    0.0000 </r>
       <r>    1.6390    0.0000 </r>
      </set>
      <set comment="kpoint 12">
       <r>  -17.1556    1.0000 </r>
       <r>  -14.7274    1.0000 </r>
       <r>  -11.4859    1.0000 </r>
       <r>   -8.0592    1.0000 </r>
       <r>   -6.8892    1.0000 </r>
       <r>   -6.6374    1.0000 </r>
       <r>   -5.7635    1.0000 </r>
       <r>   -4.2125    1.0000 </r>
       <r>   -3.7902    1.0000 </r>
       <r>   -2.4970    1.0000 </r>
       <r>   -1.1574    0.0000 </r>
       <r>   -0.8352    0.0000 </r>
       <r>    0.0431    0.0000 </r>
       <r>    0.8560    0.0000 </r>
       <r>    2.1884    0.0000 </r>
       <r>    2.3090    0.0000 </r>
      </set>
      <set comment="kpoint 13">
       <r>  -17.1309    1.0000 </r>
       <r>  -14.6988    1.0000 </r>
       <r>  -11.4927    1.0000 </r>
       <r>   -8.0402    1.0000 </r>
       <r>   -6.9065    1.0000 </r>
       <r>   -6.6461    1.0000 </r>
       <r>   -5.8940    1.0000 </r>
       <r>   -4.3951    1.0000 </r>
       <r>   -3.7906    1.0000 </r>
       <r>   -2.4896    1.0000 </r>
       <r>   -1.1417    0.0000 </r>
       <r>   -0.6146    0.0000 </r>
       <r>    0.2246    0.0000 </r>
       <r>    0.7661    0.0000 </r>
       <r>    2.2116    0.0000 </r>
       <r>    2.3360    0.0000 </r>
      </set>
      <set comment="kpoint 14">
       <r>  -17.0542    1.0000 </r>
       <r>  -14.6159    1.0000 </r>
       <r>  -11.5268    1.0000 </r>
       <r>   -7.9975    1.0000 </r>
       <r>   -6.9785    1.0000 </r>
       <r>   -6.6790    1.0000 </r>
       <r>   -6.1904    1.0000 </r>
       <r>   -4.7869    1.0000 </r>
       <r>   -3.7843    1.0000 </r>
       <r>   -2.4966    1.0000 </r>
       <r>   -1.0866    0.0000 </r>
       <r>   -0.0031    0.0000 </r>
       <r>    0.2079    0.0000 </r>
       <r>    0.9948    0.0000 </r>
       <r>    2.2801    0.0000 </r>
       <r>    2.4210    0.0000 </r>
      </set>
      <set comment="kpoint 15">
       <r>  -16.9258    1.0000 </r>
       <r>  -14.4791    1.0000 </r>
       <r>  -11.6039    1.0000 </r>
       <r>   -7.9579    1.0000 </r>
       <r>   -7.1437    1.0000 </r>
       <r>   -6.9237    1.0000 </r>
       <r>   -6.3110    1.0000 </r>
       <r>   -5.1653    1.0000 </r>
       <r>   -3.7842    1.0000 </r>
       <r>   -2.5381    1.0000 </r>
       <r>   -0.9920    0.0000 </r>
       <r>   -0.2008    0.0000 </r>
       <r>    0.8602    0.0000 </r>
       <r>    1.6116    0.0000 </r>
       <r>    2.1575    0.0000 </r>
       <r>    2.4708    0.0000 </r>
      </set>
      <set comment="kpoint 16">
       <r>  -16.7464    1.0000 </r>
       <r>  -14.2887    1.0000 </r>
       <r>  -11.7471    1.0000 </r>
       <r>   -8.0379    1.0000 </r>
       <r>   -7.3455    1.0000 </r>
       <r>   -7.2933    1.0000 </r>
       <r>   -6.2262    1.0000 </r>
       <r>   -5.3809    1.0000 </r>
       <r>   -3.8116    1.0000 </r>
       <r>   -2.6291    1.0000 </r>
       <r>   -0.8565    0.0000 </r>
       <r>   -0.6103    0.0000 </r>
       <r>    1.5429    0.0000 </r>
       <r>    1.8145    0.0000 </r>
       <r>    1.9111    0.0000 </r>
       <r>    2.6236    0.0000 </r>
      </set>
      <set comment="kpoint 17">
       <r>  -16.5169    1.0000 </r>
       <r>  -14.0459    1.0000 </r>
       <r>  -11.9785    1.0000 </r>
       <r>   -8.4301    1.0000 </r>
       <r>   -7.5858    1.0000 </r>
       <r>   -7.3665    1.0000 </r>
       <r>   -6.0708    1.0000 </r>
       <r>   -5.4255    1.0000 </r>
       <r>   -3.8925    1.0000 </r>
       <r>   -2.7804    1.0000 </r>
       <r>   -0.9123    0.0000 </r>
       <r>   -0.6854    0.0000 </r>
       <r>    1.0159    0.0000 </r>
       <r>    1.3522    0.0000 </r>
       <r>    2.5877    0.0000 </r>
       <r>    2.9296    0.0000 </r>
      </set>
      <set comment="kpoint 18">
       <r>  -16.2390    1.0000 </r>
       <r>  -13.7530    1.0000 </r>
       <r>  -12.3035    1.0000 </r>
       <r>   -9.0168    1.0000 </r>
       <r>   -7.7427    1.0000 </r>
       <r>   -7.2589    1.0000 </r>
       <r>   -5.8796    1.0000 </r>
       <r>   -5.3677    1.0000 </r>
       <r>   -4.0335    1.0000 </r>
       <r>   -2.9938    1.0000 </r>
       <r>   -1.0526    0.0000 </r>
       <r>   -0.5097    0.0000 </r>
       <r>    0.5331    0.0000 </r>
       <r>    0.7400    0.0000 </r>
       <r>    2.3641    0.0000 </r>
       <r>    3.1091    0.0000 </r>
      </set>
      <set comment="kpoint 19">
       <r>  -15.9145    1.0000 </r>
       <r>  -13.4214    1.0000 </r>
       <r>  -12.6972    1.0000 </r>
       <r>   -9.6564    1.0000 </r>
       <r>   -7.7626    1.0000 </r>
       <r>   -7.1321    1.0000 </r>
       <r>   -5.6721    1.0000 </r>
       <r>   -5.2741    1.0000 </r>
       <r>   -4.1939    1.0000 </r>
       <r>   -3.2566    1.0000 </r>
       <r>   -1.0251    0.0000 </r>
       <r>   -0.4739    0.0000 </r>
       <r>    0.1543    0.0000 </r>
       <r>    0.2878    0.0000 </r>
       <r>    1.9272    0.0000 </r>
       <r>    2.8471    0.0000 </r>
      </set>
      <set comment="kpoint 20">
       <r>  -15.5463    1.0000 </r>
       <r>  -13.2828    1.0000 </r>
       <r>  -12.9003    1.0000 </r>
       <r>  -10.2955    1.0000 </r>
       <r>   -7.6718    1.0000 </r>
       <r>   -7.0473    1.0000 </r>
       <r>   -5.4717    1.0000 </r>
       <r>   -5.1945    1.0000 </r>
       <r>   -4.2951    1.0000 </r>
       <r>   -3.5422    1.0000 </r>
       <r>   -0.8630    0.0000 </r>
       <r>   -0.7115    0.0000 </r>
       <r>   -0.3429    0.0000 </r>
       <r>    0.4309    0.0000 </r>
       <r>    1.4535    0.0000 </r>
       <r>    2.4633    0.0000 </r>
      </set>
      <set comment="kpoint 21">
       <r>  -15.1385    1.0000 </r>
       <r>  -13.7109    1.0000 </r>
       <r>  -12.5111    1.0000 </r>
       <r>  -10.9110    1.0000 </r>
       <r>   -7.5076    1.0000 </r>
       <r>   -7.0540    1.0000 </r>
       <r>   -5.3095    1.0000 </r>
       <r>   -5.1387    1.0000 </r>
       <r>   -4.2908    1.0000 </r>
       <r>   -3.8147    1.0000 </r>
       <r>   -0.9815    0.0000 </r>
       <r>   -0.7770    0.0000 </r>
       <r>   -0.5351    0.0000 </r>
       <r>    0.6968    0.0000 </r>
       <r>    1.0278    0.0000 </r>
       <r>    2.0374    0.0000 </r>
      </set>
      <set comment="kpoint 22">
       <r>  -14.6972    1.0000 </r>
       <r>  -14.1924    1.0000 </r>
       <r>  -12.0216    1.0000 </r>
       <r>  -11.4906    1.0000 </r>
       <r>   -7.3142    1.0000 </r>
       <r>   -7.1666    1.0000 </r>
       <r>   -5.2154    1.0000 </r>
       <r>   -5.0884    1.0000 </r>
       <r>   -4.2049    1.0000 </r>
       <r>   -4.0389    1.0000 </r>
       <r>   -1.1409    0.0000 </r>
       <r>   -0.9654    0.0000 </r>
       <r>   -0.2162    0.0000 </r>
       <r>    0.4393    0.0000 </r>
       <r>    1.2099    0.0000 </r>
       <r>    1.6131    0.0000 </r>
      </set>
      <set comment="kpoint 23">
       <r>  -14.6640    1.0000 </r>
       <r>  -14.2323    1.0000 </r>
       <r>  -12.0257    1.0000 </r>
       <r>  -11.4813    1.0000 </r>
       <r>   -7.3491    1.0000 </r>
       <r>   -7.1447    1.0000 </r>
       <r>   -5.1870    1.0000 </r>
       <r>   -5.0779    1.0000 </r>
       <r>   -4.1989    1.0000 </r>
       <r>   -4.0551    1.0000 </r>
       <r>   -1.1377    0.0000 </r>
       <r>   -0.9867    0.0000 </r>
       <r>    0.0235    0.0000 </r>
       <r>    0.1554    0.0000 </r>
       <r>    1.2351    0.0000 </r>
       <r>    1.6286    0.0000 </r>
      </set>
      <set comment="kpoint 24">
       <r>  -15.1100    1.0000 </r>
       <r>  -13.7628    1.0000 </r>
       <r>  -12.5044    1.0000 </r>
       <r>  -10.8986    1.0000 </r>
       <r>   -7.5456    1.0000 </r>
       <r>   -7.0548    1.0000 </r>
       <r>   -5.1843    1.0000 </r>
       <r>   -5.1612    1.0000 </r>
       <r>   -4.2913    1.0000 </r>
       <r>   -3.8330    1.0000 </r>
       <r>   -0.9790    0.0000 </r>
       <r>   -0.8337    0.0000 </r>
       <r>   -0.3182    0.0000 </r>
       <r>    0.4186    0.0000 </r>
       <r>    1.0459    0.0000 </r>
       <r>    2.0722    0.0000 </r>
      </set>
      <set comment="kpoint 25">
       <r>  -15.5218    1.0000 </r>
       <r>  -13.3702    1.0000 </r>
       <r>  -12.8591    1.0000 </r>
       <r>  -10.2814    1.0000 </r>
       <r>   -7.7064    1.0000 </r>
       <r>   -7.0716    1.0000 </r>
       <r>   -5.3329    1.0000 </r>
       <r>   -5.2007    1.0000 </r>
       <r>   -4.2837    1.0000 </r>
       <r>   -3.5584    1.0000 </r>
       <r>   -0.8590    0.0000 </r>
       <r>   -0.5734    0.0000 </r>
       <r>   -0.3824    0.0000 </r>
       <r>    0.3408    0.0000 </r>
       <r>    1.2991    0.0000 </r>
       <r>    2.5071    0.0000 </r>
      </set>
      <set comment="kpoint 26">
       <r>  -15.8935    1.0000 </r>
       <r>  -13.4687    1.0000 </r>
       <r>  -12.6966    1.0000 </r>
       <r>   -9.6420    1.0000 </r>
       <r>   -7.7901    1.0000 </r>
       <r>   -7.1704    1.0000 </r>
       <r>   -5.5519    1.0000 </r>
       <r>   -5.2656    1.0000 </r>
       <r>   -4.1542    1.0000 </r>
       <r>   -3.2727    1.0000 </r>
       <r>   -0.9626    0.0000 </r>
       <r>   -0.4034    0.0000 </r>
       <r>    0.0084    0.0000 </r>
       <r>    0.3370    0.0000 </r>
       <r>    1.7207    0.0000 </r>
       <r>    2.8942    0.0000 </r>
      </set>
      <set comment="kpoint 27">
       <r>  -16.2213    1.0000 </r>
       <r>  -13.7796    1.0000 </r>
       <r>  -12.3231    1.0000 </r>
       <r>   -9.0043    1.0000 </r>
       <r>   -7.7606    1.0000 </r>
       <r>   -7.3005    1.0000 </r>
       <r>   -5.7821    1.0000 </r>
       <r>   -5.3550    1.0000 </r>
       <r>   -3.9679    1.0000 </r>
       <r>   -3.0133    1.0000 </r>
       <r>   -0.9958    0.0000 </r>
       <r>   -0.5043    0.0000 </r>
       <r>    0.5568    0.0000 </r>
       <r>    0.6958    0.0000 </r>
       <r>    2.1484    0.0000 </r>
       <r>    3.1702    0.0000 </r>
      </set>
      <set comment="kpoint 28">
       <r>  -16.5024    1.0000 </r>
       <r>  -14.0644    1.0000 </r>
       <r>  -12.0037    1.0000 </r>
       <r>   -8.4242    1.0000 </r>
       <r>   -7.5921    1.0000 </r>
       <r>   -7.4021    1.0000 </r>
       <r>   -5.9994    1.0000 </r>
       <r>   -5.4085    1.0000 </r>
       <r>   -3.8146    1.0000 </r>
       <r>   -2.8051    1.0000 </r>
       <r>   -0.8643    0.0000 </r>
       <r>   -0.6845    0.0000 </r>
       <r>    1.1454    0.0000 </r>
       <r>    1.2153    0.0000 </r>
       <r>    2.4621    0.0000 </r>
       <r>    2.9820    0.0000 </r>
      </set>
      <set comment="kpoint 29">
       <r>  -16.7348    1.0000 </r>
       <r>  -14.3022    1.0000 </r>
       <r>  -11.7723    1.0000 </r>
       <r>   -8.0493    1.0000 </r>
       <r>   -7.3634    1.0000 </r>
       <r>   -7.2830    1.0000 </r>
       <r>   -6.1874    1.0000 </r>
       <r>   -5.3573    1.0000 </r>
       <r>   -3.7369    1.0000 </r>
       <r>   -2.6575    1.0000 </r>
       <r>   -0.8497    0.0000 </r>
       <r>   -0.5628    0.0000 </r>
       <r>    1.6061    0.0000 </r>
       <r>    1.6718    0.0000 </r>
       <r>    2.0458    0.0000 </r>
       <r>    2.6362    0.0000 </r>
      </set>
      <set comment="kpoint 30">
       <r>  -16.9172    1.0000 </r>
       <r>  -14.4887    1.0000 </r>
       <r>  -11.6254    1.0000 </r>
       <r>   -7.9789    1.0000 </r>
       <r>   -7.1504    1.0000 </r>
       <r>   -6.8773    1.0000 </r>
       <r>   -6.3251    1.0000 </r>
       <r>   -5.1353    1.0000 </r>
       <r>   -3.7235    1.0000 </r>
       <r>   -2.5665    1.0000 </r>
       <r>   -0.9807    0.0000 </r>
       <r>   -0.1427    0.0000 </r>
       <r>    0.8930    0.0000 </r>
       <r>    1.4664    0.0000 </r>
       <r>    2.3128    0.0000 </r>
       <r>    2.5705    0.0000 </r>
      </set>
      <set comment="kpoint 31">
       <r>  -17.0484    1.0000 </r>
       <r>  -14.6221    1.0000 </r>
       <r>  -11.5422    1.0000 </r>
       <r>   -8.0142    1.0000 </r>
       <r>   -6.9835    1.0000 </r>
       <r>   -6.5888    1.0000 </r>
       <r>   -6.2639    1.0000 </r>
       <r>   -4.7564    1.0000 </r>
       <r>   -3.7435    1.0000 </r>
       <r>   -2.5199    1.0000 </r>
       <r>   -1.0746    0.0000 </r>
       <r>    0.0266    0.0000 </r>
       <r>    0.3064    0.0000 </r>
       <r>    0.8530    0.0000 </r>
       <r>    2.2904    0.0000 </r>
       <r>    2.4296    0.0000 </r>
      </set>
      <set comment="kpoint 32">
       <r>  -17.1280    1.0000 </r>
       <r>  -14.7018    1.0000 </r>
       <r>  -11.5007    1.0000 </r>
       <r>   -8.0490    1.0000 </r>
       <r>   -6.9093    1.0000 </r>
       <r>   -6.6062    1.0000 </r>
       <r>   -5.9284    1.0000 </r>
       <r>   -4.3738    1.0000 </r>
       <r>   -3.7716    1.0000 </r>
       <r>   -2.5030    1.0000 </r>
       <r>   -1.1328    0.0000 </r>
       <r>   -0.5978    0.0000 </r>
       <r>    0.2680    0.0000 </r>
       <r>    0.7024    0.0000 </r>
       <r>    2.2167    0.0000 </r>
       <r>    2.3403    0.0000 </r>
      </set>
      <set comment="kpoint 33">
       <r>  -17.0916    1.0000 </r>
       <r>  -14.8207    1.0000 </r>
       <r>  -11.4894    1.0000 </r>
       <r>   -8.4182    1.0000 </r>
       <r>   -6.6831    1.0000 </r>
       <r>   -6.3839    1.0000 </r>
       <r>   -5.7148    1.0000 </r>
       <r>   -4.2596    1.0000 </r>
       <r>   -3.5453    1.0000 </r>
       <r>   -2.8808    1.0000 </r>
       <r>   -0.8101    0.0000 </r>
       <r>   -0.7828    0.0000 </r>
       <r>   -0.0879    0.0000 </r>
       <r>    0.8203    0.0000 </r>
       <r>    2.3500    0.0000 </r>
       <r>    2.3989    0.0000 </r>
      </set>
      <set comment="kpoint 34">
       <r>  -17.0684    1.0000 </r>
       <r>  -14.7909    1.0000 </r>
       <r>  -11.4901    1.0000 </r>
       <r>   -8.4008    1.0000 </r>
       <r>   -6.6893    1.0000 </r>
       <r>   -6.4525    1.0000 </r>
       <r>   -5.7887    1.0000 </r>
       <r>   -4.4628    1.0000 </r>
       <r>   -3.5611    1.0000 </r>
       <r>   -2.8669    1.0000 </r>
       <r>   -0.8003    0.0000 </r>
       <r>   -0.5714    0.0000 </r>
       <r>    0.1015    0.0000 </r>
       <r>    0.7572    0.0000 </r>
       <r>    2.3678    0.0000 </r>
       <r>    2.4237    0.0000 </r>
      </set>
      <set comment="kpoint 35">
       <r>  -16.9933    1.0000 </r>
       <r>  -14.7079    1.0000 </r>
       <r>  -11.5107    1.0000 </r>
       <r>   -8.3693    1.0000 </r>
       <r>   -6.7303    1.0000 </r>
       <r>   -6.6519    1.0000 </r>
       <r>   -5.9306    1.0000 </r>
       <r>   -4.8864    1.0000 </r>
       <r>   -3.5865    1.0000 </r>
       <r>   -2.8536    1.0000 </r>
       <r>   -0.7635    0.0000 </r>
       <r>    0.0301    0.0000 </r>
       <r>    0.1676    0.0000 </r>
       <r>    0.9688    0.0000 </r>
       <r>    2.3810    0.0000 </r>
       <r>    2.4402    0.0000 </r>
      </set>
      <set comment="kpoint 36">
       <r>  -16.8667    1.0000 </r>
       <r>  -14.5723    1.0000 </r>
       <r>  -11.5669    1.0000 </r>
       <r>   -8.3501    1.0000 </r>
       <r>   -7.0185    1.0000 </r>
       <r>   -6.8550    1.0000 </r>
[...]
       <r>    3.1481    0.0000 </r>
       <r>    3.4526    0.0000 </r>
      </set>
      <set comment="kpoint 153">
       <r>  -15.2786    1.0000 </r>
       <r>  -15.1369    1.0000 </r>
       <r>  -10.9979    1.0000 </r>
       <r>  -10.6286    1.0000 </r>
       <r>   -7.9215    1.0000 </r>
       <r>   -7.7879    1.0000 </r>
       <r>   -5.3690    1.0000 </r>
       <r>   -5.0233    1.0000 </r>
       <r>   -3.8296    1.0000 </r>
       <r>   -3.7798    1.0000 </r>
       <r>    0.3349    0.0000 </r>
       <r>    0.5463    0.0000 </r>
       <r>    1.0051    0.0000 </r>
       <r>    1.4389    0.0000 </r>
       <r>    3.1290    0.0000 </r>
       <r>    3.3550    0.0000 </r>
      </set>
      <set comment="kpoint 154">
       <r>  -15.5474    1.0000 </r>
       <r>  -15.3804    1.0000 </r>
       <r>  -10.8169    1.0000 </r>
       <r>  -10.4630    1.0000 </r>
       <r>   -7.6561    1.0000 </r>
       <r>   -7.4678    1.0000 </r>
       <r>   -5.1935    1.0000 </r>
       <r>   -4.8726    1.0000 </r>
       <r>   -3.7580    1.0000 </r>
       <r>   -3.7231    1.0000 </r>
       <r>    0.3119    0.0000 </r>
       <r>    0.4607    0.0000 </r>
       <r>    1.1313    0.0000 </r>
       <r>    1.5519    0.0000 </r>
       <r>    2.8156    0.0000 </r>
       <r>    3.1376    0.0000 </r>
      </set>
      <set comment="kpoint 155">
       <r>  -15.7744    1.0000 </r>
       <r>  -15.5861    1.0000 </r>
       <r>  -10.7466    1.0000 </r>
       <r>  -10.4137    1.0000 </r>
       <r>   -7.1981    1.0000 </r>
       <r>   -6.9569    1.0000 </r>
       <r>   -5.1647    1.0000 </r>
       <r>   -4.8574    1.0000 </r>
       <r>   -3.6097    1.0000 </r>
       <r>   -3.5798    1.0000 </r>
       <r>    0.3663    0.0000 </r>
       <r>    0.4099    0.0000 </r>
       <r>    1.1693    0.0000 </r>
       <r>    1.5485    0.0000 </r>
       <r>    2.1977    0.0000 </r>
       <r>    2.4583    0.0000 </r>
      </set>
      <set comment="kpoint 156">
       <r>  -15.9556    1.0000 </r>
       <r>  -15.7482    1.0000 </r>
       <r>  -10.7449    1.0000 </r>
       <r>  -10.4264    1.0000 </r>
       <r>   -6.6109    1.0000 </r>
       <r>   -6.3326    1.0000 </r>
       <r>   -5.2077    1.0000 </r>
       <r>   -4.9008    1.0000 </r>
       <r>   -3.5371    1.0000 </r>
       <r>   -3.4012    1.0000 </r>
       <r>    0.3382    0.0000 </r>
       <r>    0.4420    0.0000 </r>
       <r>    1.1085    0.0000 </r>
       <r>    1.3082    0.0000 </r>
       <r>    1.7402    0.0000 </r>
       <r>    1.7466    0.0000 </r>
      </set>
      <set comment="kpoint 157">
       <r>  -16.0887    1.0000 </r>
       <r>  -15.8634    1.0000 </r>
       <r>  -10.7697    1.0000 </r>
       <r>  -10.4574    1.0000 </r>
       <r>   -5.9732    1.0000 </r>
       <r>   -5.6881    1.0000 </r>
       <r>   -5.2585    1.0000 </r>
       <r>   -4.9509    1.0000 </r>
       <r>   -3.5674    1.0000 </r>
       <r>   -3.3118    1.0000 </r>
       <r>    0.0508    0.0000 </r>
       <r>    0.2403    0.0000 </r>
       <r>    1.0562    0.0000 </r>
       <r>    1.0822    0.0000 </r>
       <r>    1.3885    0.0000 </r>
       <r>    1.6191    0.0000 </r>
      </set>
      <set comment="kpoint 158">
       <r>  -16.1723    1.0000 </r>
       <r>  -15.9298    1.0000 </r>
       <r>  -10.7942    1.0000 </r>
       <r>  -10.4821    1.0000 </r>
       <r>   -5.3901    1.0000 </r>
       <r>   -5.3417    1.0000 </r>
       <r>   -5.0988    1.0000 </r>
       <r>   -4.9844    1.0000 </r>
       <r>   -3.7123    1.0000 </r>
       <r>   -3.3385    1.0000 </r>
       <r>   -0.3239    0.0000 </r>
       <r>   -0.1783    0.0000 </r>
       <r>    1.0642    0.0000 </r>
       <r>    1.1889    0.0000 </r>
       <r>    1.3020    0.0000 </r>
       <r>    1.5583    0.0000 </r>
      </set>
     </set>
    </set>
   </array>
  </eigenvalues>
  <separator name="orbital magnetization" >
   <v name="MAGDIPOLOUT">      0.00000000      0.00000000      0.00000000</v>
  </separator>
  <dos>
   <i name="efermi">     -2.21633365 </i>
   <total>
    <array>
     <dimension dim="1">gridpoints</dimension>
     <dimension dim="2">spin</dimension>
     <field>energy</field>
     <field>total</field>
     <field>integrated</field>
     <set>
      <set comment="spin 1">
       <r>   -18.2206     0.0000     0.0000 </r>
       <r>   -18.1440     0.0000     0.0000 </r>
       <r>   -18.0675     0.0000     0.0000 </r>
       <r>   -17.9910     0.0000     0.0000 </r>
       <r>   -17.9144     0.0000     0.0000 </r>
       <r>   -17.8379     0.0000     0.0000 </r>
       <r>   -17.7614     0.0000     0.0000 </r>
       <r>   -17.6849     0.0000     0.0000 </r>
       <r>   -17.6083     0.0000     0.0000 </r>
       <r>   -17.5318     0.0000     0.0000 </r>
       <r>   -17.4553     0.0000     0.0000 </r>
       <r>   -17.3787     0.0000     0.0000 </r>
       <r>   -17.3022     0.0000     0.0000 </r>
       <r>   -17.2257     0.0000     0.0000 </r>
       <r>   -17.1491     0.3114     0.0238 </r>
       <r>   -17.0726     0.7965     0.0848 </r>
       <r>   -16.9961     0.7737     0.1440 </r>
       <r>   -16.9196     1.0335     0.2231 </r>
       <r>   -16.8430     0.8422     0.2875 </r>
       <r>   -16.7665     0.6570     0.3378 </r>
       <r>   -16.6900     1.0681     0.4196 </r>
       <r>   -16.6134     0.8711     0.4862 </r>
       <r>   -16.5369     0.8706     0.5529 </r>
       <r>   -16.4604     0.7100     0.6072 </r>
       <r>   -16.3839     1.2886     0.7058 </r>
       <r>   -16.3073     0.6270     0.7538 </r>
       <r>   -16.2308     0.8009     0.8151 </r>
       <r>   -16.1543     1.4253     0.9242 </r>
       <r>   -16.0777     0.6584     0.9746 </r>
       <r>   -16.0012     0.7535     1.0322 </r>
       <r>   -15.9247     0.9517     1.1050 </r>
       <r>   -15.8481     1.2428     1.2002 </r>
       <r>   -15.7716     1.0153     1.2779 </r>
       <r>   -15.6951     0.7424     1.3347 </r>
       <r>   -15.6186     0.8984     1.4034 </r>
       <r>   -15.5420     1.1738     1.4933 </r>
       <r>   -15.4655     1.1571     1.5818 </r>
       <r>   -15.3890     1.0684     1.6636 </r>
       <r>   -15.3124     1.0455     1.7436 </r>
       <r>   -15.2359     0.8656     1.8098 </r>
       <r>   -15.1594     1.0058     1.8868 </r>
       <r>   -15.0828     1.5594     2.0062 </r>
       <r>   -15.0063     1.2747     2.1037 </r>
       <r>   -14.9298     1.4208     2.2124 </r>
       <r>   -14.8533     0.9658     2.2864 </r>
       <r>   -14.7767     1.4640     2.3984 </r>
       <r>   -14.7002     1.6997     2.5285 </r>
       <r>   -14.6237     1.7971     2.6660 </r>
       <r>   -14.5471     1.8241     2.8056 </r>
       <r>   -14.4706     1.4713     2.9182 </r>
       <r>   -14.3941     0.9124     2.9880 </r>
       <r>   -14.3176     1.3734     3.0931 </r>
       <r>   -14.2410     1.2219     3.1866 </r>
       <r>   -14.1645     2.2432     3.3583 </r>
       <r>   -14.0880     1.1110     3.4433 </r>
       <r>   -14.0114     1.2922     3.5422 </r>
       <r>   -13.9349     1.1107     3.6272 </r>
       <r>   -13.8584     0.7663     3.6859 </r>
       <r>   -13.7818     0.5862     3.7307 </r>
       <r>   -13.7053     1.5020     3.8457 </r>
       <r>   -13.6288     0.3531     3.8727 </r>
       <r>   -13.5523     0.3743     3.9014 </r>
       <r>   -13.4757     0.1790     3.9151 </r>
       <r>   -13.3992     0.4368     3.9485 </r>
       <r>   -13.3227     0.3416     3.9746 </r>
       <r>   -13.2461     0.2414     3.9931 </r>
       <r>   -13.1696     0.0902     4.0000 </r>
       <r>   -13.0931     0.0000     4.0000 </r>
       <r>   -13.0166     0.0000     4.0000 </r>
       <r>   -12.9400     0.1578     4.0121 </r>
       <r>   -12.8635     0.2358     4.0301 </r>
       <r>   -12.7870     0.1275     4.0399 </r>
       <r>   -12.7104     0.4018     4.0706 </r>
       <r>   -12.6339     0.4045     4.1016 </r>
       <r>   -12.5574     0.0173     4.1029 </r>
       <r>   -12.4808     1.3218     4.2041 </r>
       <r>   -12.4043     0.4811     4.2409 </r>
       <r>   -12.3278     0.7742     4.3001 </r>
       <r>   -12.2513     0.8596     4.3659 </r>
       <r>   -12.1747     0.4625     4.4013 </r>
       <r>   -12.0982     1.6662     4.5288 </r>
       <r>   -12.0217     2.0594     4.6864 </r>
       <r>   -11.9451     1.2104     4.7791 </r>
       <r>   -11.8686     0.9008     4.8480 </r>
       <r>   -11.7921     1.0323     4.9270 </r>
       <r>   -11.7156     1.4437     5.0375 </r>
       <r>   -11.6390     0.7536     5.0952 </r>
       <r>   -11.5625     2.2237     5.2653 </r>
       <r>   -11.4860     3.4953     5.5328 </r>
       <r>   -11.4094     1.9727     5.6838 </r>
       <r>   -11.3329     1.5361     5.8014 </r>
       <r>   -11.2564     1.3137     5.9019 </r>
       <r>   -11.1798     1.3277     6.0035 </r>
       <r>   -11.1033     0.4538     6.0382 </r>
       <r>   -11.0268     1.6751     6.1664 </r>
       <r>   -10.9503     1.1339     6.2532 </r>
       <r>   -10.8737     0.9616     6.3268 </r>
       <r>   -10.7972     0.6750     6.3784 </r>
       <r>   -10.7207     1.3365     6.4807 </r>
       <r>   -10.6441     0.6299     6.5289 </r>
       <r>   -10.5676     0.3894     6.5587 </r>
       <r>   -10.4911     0.3521     6.5857 </r>
       <r>   -10.4146     1.6166     6.7094 </r>
       <r>   -10.3380     0.9185     6.7797 </r>
       <r>   -10.2615     0.6719     6.8311 </r>
       <r>   -10.1850     0.0980     6.8386 </r>
       <r>   -10.1084     0.8809     6.9060 </r>
       <r>   -10.0319     1.2037     6.9981 </r>
       <r>    -9.9554     0.4009     7.0288 </r>
       <r>    -9.8788     0.3090     7.0525 </r>
       <r>    -9.8023     0.0205     7.0540 </r>
       <r>    -9.7258     0.7350     7.1103 </r>
       <r>    -9.6493     1.6351     7.2354 </r>
       <r>    -9.5727     0.6155     7.2825 </r>
       <r>    -9.4962     0.0003     7.2825 </r>
       <r>    -9.4197     0.0366     7.2853 </r>
       <r>    -9.3431     0.6229     7.3330 </r>
       <r>    -9.2666     0.5982     7.3788 </r>
       <r>    -9.1901     0.9156     7.4489 </r>
       <r>    -9.1136     0.3151     7.4730 </r>
       <r>    -9.0370     0.0310     7.4754 </r>
       <r>    -8.9605     0.6963     7.5286 </r>
       <r>    -8.8840     0.1046     7.5366 </r>
       <r>    -8.8074     1.0894     7.6200 </r>
       <r>    -8.7309     0.4023     7.6508 </r>
       <r>    -8.6544     0.3261     7.6758 </r>
       <r>    -8.5778     0.0056     7.6762 </r>
       <r>    -8.5013     0.0000     7.6762 </r>
       <r>    -8.4248     0.4662     7.7119 </r>
       <r>    -8.3483     1.2751     7.8095 </r>
       <r>    -8.2717     0.2498     7.8286 </r>
       <r>    -8.1952     0.0112     7.8294 </r>
       <r>    -8.1187     0.8177     7.8920 </r>
       <r>    -8.0421     2.2112     8.0612 </r>
       <r>    -7.9656     2.2810     8.2358 </r>
       <r>    -7.8891     1.5525     8.3546 </r>
       <r>    -7.8126     2.5297     8.5482 </r>
       <r>    -7.7360     2.6189     8.7486 </r>
       <r>    -7.6595     1.8866     8.8930 </r>
       <r>    -7.5830     1.7158     9.0243 </r>
       <r>    -7.5064     1.9331     9.1722 </r>
       <r>    -7.4299     2.4730     9.3615 </r>
       <r>    -7.3534     2.4598     9.5497 </r>
       <r>    -7.2768     2.8399     9.7671 </r>
       <r>    -7.2003     3.5409    10.0381 </r>
       <r>    -7.1238     3.5287    10.3081 </r>
       <r>    -7.0473     3.2674    10.5582 </r>
       <r>    -6.9707     1.9461    10.7071 </r>
       <r>    -6.8942     1.1975    10.7987 </r>
       <r>    -6.8177     1.5295    10.9158 </r>
       <r>    -6.7411     0.9018    10.9848 </r>
       <r>    -6.6646     1.9841    11.1367 </r>
       <r>    -6.5881     1.6912    11.2661 </r>
       <r>    -6.5115     1.6089    11.3892 </r>
       <r>    -6.4350     1.4754    11.5021 </r>
       <r>    -6.3585     1.3681    11.6068 </r>
       <r>    -6.2820     1.8360    11.7473 </r>
       <r>    -6.2054     1.8571    11.8895 </r>
       <r>    -6.1289     2.0042    12.0428 </r>
       <r>    -6.0524     1.0797    12.1255 </r>
       <r>    -5.9758     1.2997    12.2249 </r>
       <r>    -5.8993     3.1771    12.4681 </r>
       <r>    -5.8228     1.3300    12.5699 </r>
       <r>    -5.7463     2.2600    12.7428 </r>
       <r>    -5.6697     3.2824    12.9940 </r>
       <r>    -5.5932     3.5972    13.2693 </r>
       <r>    -5.5167     3.2434    13.5175 </r>
       <r>    -5.4401     4.3677    13.8518 </r>
       <r>    -5.3636     3.1797    14.0951 </r>
       <r>    -5.2871     3.3255    14.3496 </r>
       <r>    -5.2105     2.8805    14.5701 </r>
       <r>    -5.1340     3.3715    14.8281 </r>
       <r>    -5.0575     2.2303    14.9988 </r>
       <r>    -4.9810     1.9848    15.1507 </r>
       <r>    -4.9044     2.1591    15.3159 </r>
       <r>    -4.8279     1.4654    15.4280 </r>
       <r>    -4.7514     1.4635    15.5400 </r>
       <r>    -4.6748     0.9240    15.6108 </r>
       <r>    -4.5983     1.1046    15.6953 </r>
       <r>    -4.5218     1.7511    15.8293 </r>
       <r>    -4.4453     0.7259    15.8849 </r>
       <r>    -4.3687     1.0848    15.9679 </r>
       <r>    -4.2922     1.0861    16.0510 </r>
       <r>    -4.2157     1.3892    16.1573 </r>
       <r>    -4.1391     2.7146    16.3651 </r>
       <r>    -4.0626     2.0735    16.5238 </r>
       <r>    -3.9861     2.5238    16.7169 </r>
       <r>    -3.9095     2.1118    16.8785 </r>
       <r>    -3.8330     3.2191    17.1249 </r>
       <r>    -3.7565     5.0521    17.5115 </r>
       <r>    -3.6800     3.9139    17.8110 </r>
       <r>    -3.6034     3.0806    18.0468 </r>
       <r>    -3.5269     3.6939    18.3295 </r>
       <r>    -3.4504     4.0018    18.6357 </r>
       <r>    -3.3738     2.1157    18.7977 </r>
       <r>    -3.2973     3.7554    19.0851 </r>
       <r>    -3.2208     3.0918    19.3217 </r>
       <r>    -3.1443     1.1425    19.4091 </r>
       <r>    -3.0677     0.3779    19.4380 </r>
       <r>    -2.9912     1.0876    19.5213 </r>
       <r>    -2.9147     1.7157    19.6526 </r>
       <r>    -2.8381     1.5644    19.7723 </r>
       <r>    -2.7616     0.5542    19.8147 </r>
       <r>    -2.6851     0.1806    19.8285 </r>
       <r>    -2.6085     0.3206    19.8531 </r>
       <r>    -2.5320     0.4043    19.8840 </r>
       <r>    -2.4555     0.9332    19.9554 </r>
       <r>    -2.3790     0.1656    19.9681 </r>
       <r>    -2.3024     0.3500    19.9949 </r>
       <r>    -2.2259     0.0670    20.0000 </r>
       <r>    -2.1494     0.0000    20.0000 </r>
       <r>    -2.0728     0.0000    20.0000 </r>
       <r>    -1.9963     0.0000    20.0000 </r>
       <r>    -1.9198     0.0000    20.0000 </r>
       <r>    -1.8433     0.0000    20.0000 </r>
       <r>    -1.7667     0.0000    20.0000 </r>
       <r>    -1.6902     0.0000    20.0000 </r>
       <r>    -1.6137     0.0000    20.0000 </r>
       <r>    -1.5371     0.0000    20.0000 </r>
       <r>    -1.4606     0.0000    20.0000 </r>
       <r>    -1.3841     0.0000    20.0000 </r>
       <r>    -1.3075     0.1611    20.0123 </r>
       <r>    -1.2310     0.1915    20.0270 </r>
       <r>    -1.1545     0.4348    20.0603 </r>
       <r>    -1.0780     1.8811    20.2042 </r>
       <r>    -1.0014     1.0492    20.2845 </r>
       <r>    -0.9249     1.9581    20.4344 </r>
       <r>    -0.8484     2.3690    20.6157 </r>
       <r>    -0.7718     1.9174    20.7624 </r>
       <r>    -0.6953     1.4747    20.8753 </r>
       <r>    -0.6188     2.3217    21.0529 </r>
       <r>    -0.5423     3.5254    21.3227 </r>
       <r>    -0.4657     2.8463    21.5406 </r>
       <r>    -0.3892     2.5813    21.7381 </r>
       <r>    -0.3127     2.9913    21.9670 </r>
       <r>    -0.2361     2.3168    22.1443 </r>
       <r>    -0.1596     3.7115    22.4284 </r>
       <r>    -0.0831     1.6665    22.5559 </r>
       <r>    -0.0065     2.8772    22.7761 </r>
       <r>     0.0700     3.5225    23.0457 </r>
       <r>     0.1465     4.4955    23.3897 </r>
       <r>     0.2230     4.1241    23.7053 </r>
       <r>     0.2996     3.7260    23.9905 </r>
       <r>     0.3761     5.1369    24.3836 </r>
       <r>     0.4526     3.1694    24.6262 </r>
       <r>     0.5292     3.5892    24.9008 </r>
       <r>     0.6057     3.4125    25.1620 </r>
       <r>     0.6822     2.5454    25.3568 </r>
       <r>     0.7587     4.4622    25.6983 </r>
       <r>     0.8353     4.7314    26.0604 </r>
       <r>     0.9118     3.3543    26.3171 </r>
       <r>     0.9883     2.6402    26.5191 </r>
       <r>     1.0649     2.6053    26.7185 </r>
       <r>     1.1414     2.8055    26.9332 </r>
       <r>     1.2179     2.4763    27.1227 </r>
       <r>     1.2945     1.9009    27.2682 </r>
       <r>     1.3710     2.5904    27.4665 </r>
       <r>     1.4475     2.5143    27.6589 </r>
       <r>     1.5240     2.1372    27.8224 </r>
       <r>     1.6006     2.8858    28.0433 </r>
       <r>     1.6771     3.2872    28.2948 </r>
       <r>     1.7536     2.1515    28.4595 </r>
       <r>     1.8302     1.6201    28.5835 </r>
       <r>     1.9067     2.6275    28.7846 </r>
       <r>     1.9832     1.7593    28.9192 </r>
       <r>     2.0598     1.7623    29.0541 </r>
       <r>     2.1363     1.8812    29.1980 </r>
       <r>     2.2128     2.9609    29.4246 </r>
       <r>     2.2893     2.6144    29.6247 </r>
       <r>     2.3659     2.2285    29.7953 </r>
       <r>     2.4424     3.4947    30.0627 </r>
       <r>     2.5189     2.7840    30.2758 </r>
       <r>     2.5955     3.4714    30.5414 </r>
       <r>     2.6720     3.0661    30.7761 </r>
       <r>     2.7485     1.4721    30.8887 </r>
       <r>     2.8250     2.1007    31.0495 </r>
       <r>     2.9016     2.4252    31.2351 </r>
       <r>     2.9781     1.5492    31.3537 </r>
       <r>     3.0546     1.6295    31.4784 </r>
       <r>     3.1312     1.4751    31.5912 </r>
       <r>     3.2077     1.5678    31.7112 </r>
       <r>     3.2842     1.6786    31.8397 </r>
       <r>     3.3608     0.7116    31.8942 </r>
       <r>     3.4373     0.3318    31.9195 </r>
       <r>     3.5138     0.5516    31.9618 </r>
       <r>     3.5903     0.2986    31.9846 </r>
       <r>     3.6669     0.0392    31.9876 </r>
       <r>     3.7434     0.1618    32.0000 </r>
       <r>     3.8199     0.0000    32.0000 </r>
       <r>     3.8965     0.0000    32.0000 </r>
       <r>     3.9730     0.0000    32.0000 </r>
       <r>     4.0495     0.0000    32.0000 </r>
       <r>     4.1260     0.0000    32.0000 </r>
       <r>     4.2026     0.0000    32.0000 </r>
       <r>     4.2791     0.0000    32.0000 </r>
       <r>     4.3556     0.0000    32.0000 </r>
       <r>     4.4322     0.0000    32.0000 </r>
       <r>     4.5087     0.0000    32.0000 </r>
       <r>     4.5852     0.0000    32.0000 </r>
       <r>     4.6618     0.0000    32.0000 </r>
       <r>     4.7383     0.0000    32.0000 </r>
      </set>
     </set>
    </array>
   </total>
  </dos>
 </calculation>
 <structure name="finalpos" >
  <crystal>
   <varray name="basis" >
    <v>       3.34593600       0.04909800       0.00000000 </v>
    <v>       0.06884500       4.62283800      -0.00005300 </v>
    <v>       0.00000000       0.00000000      20.02439000 </v>
   </varray>
   <i name="volume">    309.66397394 </i>
   <varray name="rec_basis" >
    <v>       0.29893536      -0.00445186       0.00000000 </v>
    <v>      -0.00317492       0.21636462       0.00000000 </v>
    <v>      -0.00000001       0.00000057       0.04993910 </v>
   </varray>
  </crystal>
  <varray name="positions" >
   <v>       0.49447429       0.91020854       0.55242578 </v>
   <v>       0.50552571       0.08979146       0.44757422 </v>
   <v>      -0.00552562       0.41020391       0.44757422 </v>
   <v>       0.00552562       0.58979609       0.55242578 </v>
  </varray>
 </structure>
</modeling>
