<?xml version="1.0" encoding="ISO-8859-1"?>
<modeling>
 <generator>
  <i name="program" type="string">vasp </i>
  <i name="version" type="string">5.4.1  </i>
  <i name="subversion" type="string">24Jun15 (build Nov 20 2020 10:29:34) complex                          parallel </i>
  <i name="platform" type="string">IFC91_ompi </i>
  <i name="date" type="string">2021 09 09 </i>
  <i name="time" type="string">15:20:02 </i>
 </generator>
 <incar>
  <i type="string" name="PREC">a</i>
  <i type="string" name="ALGO"> Normal</i>
  <i type="int" name="ISPIN">     1</i>
  <i type="int" name="ICHARG">     2</i>
  <i type="int" name="NELM">   250</i>
  <i type="int" name="NELMDL">    -5</i>
  <i type="int" name="NELMIN">     6</i>
  <i type="int" name="IBRION">     2</i>
  <i name="EDIFF">      0.00001000</i>
  <i name="EDIFFG">     -0.01000000</i>
  <i type="int" name="NSW">   200</i>
  <i type="int" name="ISIF">     2</i>
  <i name="ENCUT">    520.00000000</i>
  <i name="POTIM">      0.30000000</i>
  <i type="logical" name="LREAL"> F  </i>
  <i type="int" name="ISMEAR">     0</i>
  <i name="SIGMA">      0.02000000</i>
  <i type="logical" name="LWAVE"> F  </i>
  <i type="logical" name="LCHARG"> F  </i>
  <i type="logical" name="LAECHG"> F  </i>
  <v type="int" name="KPOINT_BSE">    -1     0     0     0</v>
  <i type="int" name="NELM">   250</i>
 </incar>
 <kpoints>
  <generation param="Gamma">
   <v type="int" name="divisions">      22       15        1 </v>
   <v name="usershift">      0.00000000       0.00000000       0.00000000 </v>
   <v name="genvec1">      0.04545455       0.00000000       0.00000000 </v>
   <v name="genvec2">      0.00000000       0.06666667       0.00000000 </v>
   <v name="genvec3">      0.00000000      -0.00000000       1.00000000 </v>
   <v name="shift">      0.00000000       0.00000000       0.00000000 </v>
  </generation>
  <varray name="kpointlist" >
   <v>       0.00000000       0.00000000       0.00000000 </v>
   <v>       0.04545455       0.00000000       0.00000000 </v>
   <v>       0.09090909       0.00000000       0.00000000 </v>
   <v>       0.13636364       0.00000000       0.00000000 </v>
   <v>       0.18181818       0.00000000       0.00000000 </v>
   <v>       0.22727273       0.00000000       0.00000000 </v>
   <v>       0.27272727       0.00000000       0.00000000 </v>
   <v>       0.31818182       0.00000000       0.00000000 </v>
   <v>       0.36363636       0.00000000       0.00000000 </v>
   <v>       0.40909091       0.00000000       0.00000000 </v>
   <v>       0.45454545       0.00000000       0.00000000 </v>
   <v>       0.50000000       0.00000000       0.00000000 </v>
   <v>       0.00000000       0.06666667       0.00000000 </v>
   <v>       0.04545455       0.06666667       0.00000000 </v>
   <v>       0.09090909       0.06666667       0.00000000 </v>
   <v>       0.13636364       0.06666667       0.00000000 </v>
   <v>       0.18181818       0.06666667       0.00000000 </v>
   <v>       0.22727273       0.06666667       0.00000000 </v>
   <v>       0.27272727       0.06666667       0.00000000 </v>
   <v>       0.31818182       0.06666667       0.00000000 </v>
   <v>       0.36363636       0.06666667       0.00000000 </v>
   <v>       0.40909091       0.06666667       0.00000000 </v>
   <v>       0.45454545       0.06666667       0.00000000 </v>
   <v>       0.50000000       0.06666667       0.00000000 </v>
   <v>      -0.45454545       0.06666667       0.00000000 </v>
   <v>      -0.40909091       0.06666667       0.00000000 </v>
   <v>      -0.36363636       0.06666667       0.00000000 </v>
   <v>      -0.31818182       0.06666667       0.00000000 </v>
   <v>      -0.27272727       0.06666667       0.00000000 </v>
   <v>      -0.22727273       0.06666667       0.00000000 </v>
   <v>      -0.18181818       0.06666667       0.00000000 </v>
   <v>      -0.13636364       0.06666667       0.00000000 </v>
   <v>      -0.09090909       0.06666667       0.00000000 </v>
   <v>      -0.04545455       0.06666667       0.00000000 </v>
   <v>       0.00000000       0.13333333       0.00000000 </v>
   <v>       0.04545455       0.13333333       0.00000000 </v>
   <v>       0.09090909       0.13333333       0.00000000 </v>
   <v>       0.13636364       0.13333333       0.00000000 </v>
   <v>       0.18181818       0.13333333       0.00000000 </v>
   <v>       0.22727273       0.13333333       0.00000000 </v>
   <v>       0.27272727       0.13333333       0.00000000 </v>
   <v>       0.31818182       0.13333333       0.00000000 </v>
   <v>       0.36363636       0.13333333       0.00000000 </v>
   <v>       0.40909091       0.13333333       0.00000000 </v>
   <v>       0.45454545       0.13333333       0.00000000 </v>
   <v>       0.50000000       0.13333333       0.00000000 </v>
   <v>      -0.45454545       0.13333333       0.00000000 </v>
   <v>      -0.40909091       0.13333333       0.00000000 </v>
   <v>      -0.36363636       0.13333333       0.00000000 </v>
   <v>      -0.31818182       0.13333333       0.00000000 </v>
   <v>      -0.27272727       0.13333333       0.00000000 </v>
   <v>      -0.22727273       0.13333333       0.00000000 </v>
   <v>      -0.18181818       0.13333333       0.00000000 </v>
   <v>      -0.13636364       0.13333333       0.00000000 </v>
   <v>      -0.09090909       0.13333333       0.00000000 </v>
   <v>      -0.04545455       0.13333333       0.00000000 </v>
   <v>       0.00000000       0.20000000       0.00000000 </v>
   <v>       0.04545455       0.20000000       0.00000000 </v>
   <v>       0.09090909       0.20000000       0.00000000 </v>
   <v>       0.13636364       0.20000000       0.00000000 </v>
   <v>       0.18181818       0.20000000       0.00000000 </v>
   <v>       0.22727273       0.20000000       0.00000000 </v>
   <v>       0.27272727       0.20000000       0.00000000 </v>
   <v>       0.31818182       0.20000000       0.00000000 </v>
   <v>       0.36363636       0.20000000       0.00000000 </v>
   <v>       0.40909091       0.20000000       0.00000000 </v>
   <v>       0.45454545       0.20000000       0.00000000 </v>
   <v>       0.50000000       0.20000000       0.00000000 </v>
   <v>      -0.45454545       0.20000000       0.00000000 </v>
   <v>      -0.40909091       0.20000000       0.00000000 </v>
   <v>      -0.36363636       0.20000000       0.00000000 </v>
   <v>      -0.31818182       0.20000000       0.00000000 </v>
   <v>      -0.27272727       0.20000000       0.00000000 </v>
   <v>      -0.22727273       0.20000000       0.00000000 </v>
   <v>      -0.18181818       0.20000000       0.00000000 </v>
   <v>      -0.13636364       0.20000000       0.00000000 </v>
   <v>      -0.09090909       0.20000000       0.00000000 </v>
   <v>      -0.04545455       0.20000000       0.00000000 </v>
   <v>       0.00000000       0.26666667       0.00000000 </v>
   <v>       0.04545455       0.26666667       0.00000000 </v>
   <v>       0.09090909       0.26666667       0.00000000 </v>
   <v>       0.13636364       0.26666667       0.00000000 </v>
   <v>       0.18181818       0.26666667       0.00000000 </v>
   <v>       0.22727273       0.26666667       0.00000000 </v>
   <v>       0.27272727       0.26666667       0.00000000 </v>
   <v>       0.31818182       0.26666667       0.00000000 </v>
   <v>       0.36363636       0.26666667       0.00000000 </v>
   <v>       0.40909091       0.26666667       0.00000000 </v>
   <v>       0.45454545       0.26666667       0.00000000 </v>
   <v>       0.50000000       0.26666667       0.00000000 </v>
   <v>      -0.45454545       0.26666667       0.00000000 </v>
   <v>      -0.40909091       0.26666667       0.00000000 </v>
   <v>      -0.36363636       0.26666667       0.00000000 </v>
   <v>      -0.31818182       0.26666667       0.00000000 </v>
   <v>      -0.27272727       0.26666667       0.00000000 </v>
   <v>      -0.22727273       0.26666667       0.00000000 </v>
   <v>      -0.18181818       0.26666667       0.00000000 </v>
   <v>      -0.13636364       0.26666667       0.00000000 </v>
   <v>      -0.09090909       0.26666667       0.00000000 </v>
   <v>      -0.04545455       0.26666667       0.00000000 </v>
   <v>       0.00000000       0.33333333       0.00000000 </v>
   <v>       0.04545455       0.33333333       0.00000000 </v>
   <v>       0.09090909       0.33333333       0.00000000 </v>
   <v>       0.13636364       0.33333333       0.00000000 </v>
   <v>       0.18181818       0.33333333       0.00000000 </v>
   <v>       0.22727273       0.33333333       0.00000000 </v>
   <v>       0.27272727       0.33333333       0.00000000 </v>
   <v>       0.31818182       0.33333333       0.00000000 </v>
   <v>       0.36363636       0.33333333       0.00000000 </v>
   <v>       0.40909091       0.33333333       0.00000000 </v>
   <v>       0.45454545       0.33333333       0.00000000 </v>
   <v>       0.50000000       0.33333333       0.00000000 </v>
   <v>      -0.45454545       0.33333333       0.00000000 </v>
   <v>      -0.40909091       0.33333333       0.00000000 </v>
   <v>      -0.36363636       0.33333333       0.00000000 </v>
   <v>      -0.31818182       0.33333333       0.00000000 </v>
   <v>      -0.27272727       0.33333333       0.00000000 </v>
   <v>      -0.22727273       0.33333333       0.00000000 </v>
   <v>      -0.18181818       0.33333333       0.00000000 </v>
   <v>      -0.13636364       0.33333333       0.00000000 </v>
   <v>      -0.09090909       0.33333333       0.00000000 </v>
   <v>      -0.04545455       0.33333333       0.00000000 </v>
   <v>       0.00000000       0.40000000       0.00000000 </v>
   <v>       0.04545455       0.40000000       0.00000000 </v>
   <v>       0.09090909       0.40000000       0.00000000 </v>
   <v>       0.13636364       0.40000000       0.00000000 </v>
   <v>       0.18181818       0.40000000       0.00000000 </v>
   <v>       0.22727273       0.40000000       0.00000000 </v>
   <v>       0.27272727       0.40000000       0.00000000 </v>
   <v>       0.31818182       0.40000000       0.00000000 </v>
   <v>       0.36363636       0.40000000       0.00000000 </v>
   <v>       0.40909091       0.40000000       0.00000000 </v>
   <v>       0.45454545       0.40000000       0.00000000 </v>
   <v>       0.50000000       0.40000000       0.00000000 </v>
   <v>      -0.45454545       0.40000000       0.00000000 </v>
   <v>      -0.40909091       0.40000000       0.00000000 </v>
   <v>      -0.36363636       0.40000000       0.00000000 </v>
   <v>      -0.31818182       0.40000000       0.00000000 </v>
   <v>      -0.27272727       0.40000000       0.00000000 </v>
   <v>      -0.22727273       0.40000000       0.00000000 </v>
   <v>      -0.18181818       0.40000000       0.00000000 </v>
   <v>      -0.13636364       0.40000000       0.00000000 </v>
   <v>      -0.09090909       0.40000000       0.00000000 </v>
   <v>      -0.04545455       0.40000000       0.00000000 </v>
   <v>       0.00000000       0.46666667       0.00000000 </v>
   <v>       0.04545455       0.46666667       0.00000000 </v>
   <v>       0.09090909       0.46666667       0.00000000 </v>
   <v>       0.13636364       0.46666667       0.00000000 </v>
   <v>       0.18181818       0.46666667       0.00000000 </v>
   <v>       0.22727273       0.46666667       0.00000000 </v>
   <v>       0.27272727       0.46666667       0.00000000 </v>
   <v>       0.31818182       0.46666667       0.00000000 </v>
   <v>       0.36363636       0.46666667       0.00000000 </v>
   <v>       0.40909091       0.46666667       0.00000000 </v>
   <v>       0.45454545       0.46666667       0.00000000 </v>
   <v>       0.50000000       0.46666667       0.00000000 </v>
   <v>      -0.45454545       0.46666667       0.00000000 </v>
   <v>      -0.40909091       0.46666667       0.00000000 </v>
   <v>      -0.36363636       0.46666667       0.00000000 </v>
   <v>      -0.31818182       0.46666667       0.00000000 </v>
   <v>      -0.27272727       0.46666667       0.00000000 </v>
   <v>      -0.22727273       0.46666667       0.00000000 </v>
   <v>      -0.18181818       0.46666667       0.00000000 </v>
   <v>      -0.13636364       0.46666667       0.00000000 </v>
   <v>      -0.09090909       0.46666667       0.00000000 </v>
   <v>      -0.04545455       0.46666667       0.00000000 </v>
  </varray>
  <varray name="weights" >
   <v>       0.00303030 </v>
   <v>       0.00606061 </v>
   <v>       0.00606061 </v>
   <v>       0.00606061 </v>
   <v>       0.00606061 </v>
   <v>       0.00606061 </v>
   <v>       0.00606061 </v>
   <v>       0.00606061 </v>
   <v>       0.00606061 </v>
   <v>       0.00606061 </v>
   <v>       0.00606061 </v>
   <v>       0.00303030 </v>
   <v>       0.00606061 </v>
   <v>       0.00606061 </v>
   <v>       0.00606061 </v>
   <v>       0.00606061 </v>
   <v>       0.00606061 </v>
   <v>       0.00606061 </v>
   <v>       0.00606061 </v>
   <v>       0.00606061 </v>
   <v>       0.00606061 </v>
   <v>       0.00606061 </v>
   <v>       0.00606061 </v>
   <v>       0.00606061 </v>
   <v>       0.00606061 </v>
   <v>       0.00606061 </v>
   <v>       0.00606061 </v>
   <v>       0.00606061 </v>
   <v>       0.00606061 </v>
   <v>       0.00606061 </v>
   <v>       0.00606061 </v>
   <v>       0.00606061 </v>
   <v>       0.00606061 </v>
   <v>       0.00606061 </v>
   <v>       0.00606061 </v>
   <v>       0.00606061 </v>
   <v>       0.00606061 </v>
   <v>       0.00606061 </v>
   <v>       0.00606061 </v>
   <v>       0.00606061 </v>
   <v>       0.00606061 </v>
   <v>       0.00606061 </v>
   <v>       0.00606061 </v>
   <v>       0.00606061 </v>
   <v>       0.00606061 </v>
   <v>       0.00606061 </v>
   <v>       0.00606061 </v>
   <v>       0.00606061 </v>
   <v>       0.00606061 </v>
   <v>       0.00606061 </v>
   <v>       0.00606061 </v>
   <v>       0.00606061 </v>
   <v>       0.00606061 </v>
   <v>       0.00606061 </v>
   <v>       0.00606061 </v>
   <v>       0.00606061 </v>
   <v>       0.00606061 </v>
   <v>       0.00606061 </v>
   <v>       0.00606061 </v>
   <v>       0.00606061 </v>
   <v>       0.00606061 </v>
   <v>       0.00606061 </v>
   <v>       0.00606061 </v>
   <v>       0.00606061 </v>
   <v>       0.00606061 </v>
   <v>       0.00606061 </v>
   <v>       0.00606061 </v>
   <v>       0.00606061 </v>
   <v>       0.00606061 </v>
   <v>       0.00606061 </v>
   <v>       0.00606061 </v>
   <v>       0.00606061 </v>
   <v>       0.00606061 </v>
   <v>       0.00606061 </v>
   <v>       0.00606061 </v>
   <v>       0.00606061 </v>
   <v>       0.00606061 </v>
   <v>       0.00606061 </v>
   <v>       0.00606061 </v>
   <v>       0.00606061 </v>
   <v>       0.00606061 </v>
   <v>       0.00606061 </v>
   <v>       0.00606061 </v>
   <v>       0.00606061 </v>
   <v>       0.00606061 </v>
   <v>       0.00606061 </v>
   <v>       0.00606061 </v>
   <v>       0.00606061 </v>
   <v>       0.00606061 </v>
   <v>       0.00606061 </v>
   <v>       0.00606061 </v>
   <v>       0.00606061 </v>
   <v>       0.00606061 </v>
   <v>       0.00606061 </v>
   <v>       0.00606061 </v>
   <v>       0.00606061 </v>
   <v>       0.00606061 </v>
   <v>       0.00606061 </v>
   <v>       0.00606061 </v>
   <v>       0.00606061 </v>
   <v>       0.00606061 </v>
   <v>       0.00606061 </v>
   <v>       0.00606061 </v>
   <v>       0.00606061 </v>
   <v>       0.00606061 </v>
   <v>       0.00606061 </v>
   <v>       0.00606061 </v>
   <v>       0.00606061 </v>
   <v>       0.00606061 </v>
   <v>       0.00606061 </v>
   <v>       0.00606061 </v>
   <v>       0.00606061 </v>
   <v>       0.00606061 </v>
   <v>       0.00606061 </v>
   <v>       0.00606061 </v>
   <v>       0.00606061 </v>
   <v>       0.00606061 </v>
   <v>       0.00606061 </v>
   <v>       0.00606061 </v>
   <v>       0.00606061 </v>
   <v>       0.00606061 </v>
   <v>       0.00606061 </v>
   <v>       0.00606061 </v>
   <v>       0.00606061 </v>
   <v>       0.00606061 </v>
   <v>       0.00606061 </v>
   <v>       0.00606061 </v>
   <v>       0.00606061 </v>
   <v>       0.00606061 </v>
   <v>       0.00606061 </v>
   <v>       0.00606061 </v>
   <v>       0.00606061 </v>
   <v>       0.00606061 </v>
   <v>       0.00606061 </v>
   <v>       0.00606061 </v>
   <v>       0.00606061 </v>
   <v>       0.00606061 </v>
   <v>       0.00606061 </v>
   <v>       0.00606061 </v>
   <v>       0.00606061 </v>
   <v>       0.00606061 </v>
   <v>       0.00606061 </v>
   <v>       0.00606061 </v>
   <v>       0.00606061 </v>
   <v>       0.00606061 </v>
   <v>       0.00606061 </v>
   <v>       0.00606061 </v>
   <v>       0.00606061 </v>
   <v>       0.00606061 </v>
   <v>       0.00606061 </v>
   <v>       0.00606061 </v>
   <v>       0.00606061 </v>
   <v>       0.00606061 </v>
   <v>       0.00606061 </v>
   <v>       0.00606061 </v>
   <v>       0.00606061 </v>
   <v>       0.00606061 </v>
   <v>       0.00606061 </v>
   <v>       0.00606061 </v>
   <v>       0.00606061 </v>
   <v>       0.00606061 </v>
   <v>       0.00606061 </v>
   <v>       0.00606061 </v>
   <v>       0.00606061 </v>
   <v>       0.00606061 </v>
   <v>       0.00606061 </v>
  </varray>
 </kpoints>
 <parameters>
  <separator name="general" >
   <i type="string" name="SYSTEM">unknown system</i>
   <i type="logical" name="LCOMPAT"> F  </i>
  </separator>
  <separator name="electronic" >
   <i type="string" name="PREC">a</i>
   <i name="ENMAX">    520.00000000</i>
   <i name="ENAUG">    342.92400000</i>
   <i name="EDIFF">      0.00001000</i>
   <i type="int" name="IALGO">    38</i>
   <i type="int" name="IWAVPR">    11</i>
   <i type="int" name="NBANDS">    16</i>
   <i name="NELECT">     20.00000000</i>
   <i type="int" name="TURBO">     0</i>
   <i type="int" name="IRESTART">     0</i>
   <i type="int" name="NREBOOT">     0</i>
   <i type="int" name="NMIN">     0</i>
   <i name="EREF">      0.00000000</i>
   <separator name="electronic smearing" >
    <i type="int" name="ISMEAR">     0</i>
    <i name="SIGMA">      0.02000000</i>
    <i name="KSPACING">      0.50000000</i>
    <i type="logical" name="KGAMMA"> T  </i>
   </separator>
   <separator name="electronic projectors" >
    <i type="logical" name="LREAL"> F  </i>
    <v name="ROPT">      0.00000000</v>
    <i type="int" name="LMAXPAW">  -100</i>
    <i type="int" name="LMAXMIX">     2</i>
    <i type="logical" name="NLSPLINE"> F  </i>
   </separator>
   <separator name="electronic startup" >
    <i type="int" name="ISTART">     0</i>
    <i type="int" name="ICHARG">     2</i>
    <i type="int" name="INIWAV">     1</i>
   </separator>
   <separator name="electronic spin" >
    <i type="int" name="ISPIN">     1</i>
    <i type="logical" name="LNONCOLLINEAR"> F  </i>
    <v name="MAGMOM">      1.00000000      1.00000000      1.00000000      1.00000000</v>
    <i name="NUPDOWN">     -1.00000000</i>
    <i type="logical" name="LSORBIT"> F  </i>
    <v name="SAXIS">      0.00000000      0.00000000      1.00000000</v>
    <i type="logical" name="LSPIRAL"> F  </i>
    <v name="QSPIRAL">      0.00000000      0.00000000      0.00000000</v>
    <i type="logical" name="LZEROZ"> F  </i>
   </separator>
   <separator name="electronic exchange-correlation" >
    <i type="logical" name="LASPH"> F  </i>
    <i type="logical" name="LMETAGGA"> F  </i>
   </separator>
   <separator name="electronic convergence" >
    <i type="int" name="NELM">   250</i>
    <i type="int" name="NELMDL">    -5</i>
    <i type="int" name="NELMIN">     6</i>
    <i name="ENINI">    520.00000000</i>
    <separator name="electronic convergence detail" >
     <i type="logical" name="LDIAG"> T  </i>
     <i type="logical" name="LSUBROT"> F  </i>
     <i name="WEIMIN">      0.00100000</i>
     <i name="EBREAK">      0.00000016</i>
     <i name="DEPER">      0.30000000</i>
     <i type="int" name="NRMM">     4</i>
     <i name="TIME">      0.40000000</i>
    </separator>
   </separator>
   <separator name="electronic mixer" >
    <i name="AMIX">      0.40000000</i>
    <i name="BMIX">      1.00000000</i>
    <i name="AMIN">      0.10000000</i>
    <i name="AMIX_MAG">      1.60000000</i>
    <i name="BMIX_MAG">      1.00000000</i>
    <separator name="electronic mixer details" >
     <i type="int" name="IMIX">     4</i>
     <i type="logical" name="MIXFIRST"> F  </i>
     <i type="int" name="MAXMIX">   -45</i>
     <i name="WC">    100.00000000</i>
     <i type="int" name="INIMIX">     1</i>
     <i type="int" name="MIXPRE">     1</i>
     <i type="int" name="MREMOVE">     5</i>
    </separator>
   </separator>
   <separator name="electronic dipolcorrection" >
    <i type="logical" name="LDIPOL"> F  </i>
    <i type="logical" name="LMONO"> F  </i>
    <i type="int" name="IDIPOL">     0</i>
    <i name="EPSILON">      1.00000000</i>
    <v name="DIPOL">   -100.00000000   -100.00000000   -100.00000000</v>
    <i name="EFIELD">      0.00000000</i>
   </separator>
  </separator>
  <separator name="grids" >
   <i type="int" name="NGX">    28</i>
   <i type="int" name="NGY">    36</i>
   <i type="int" name="NGZ">   150</i>
   <i type="int" name="NGXF">    56</i>
   <i type="int" name="NGYF">    72</i>
   <i type="int" name="NGZF">   300</i>
   <i type="logical" name="ADDGRID"> F  </i>
  </separator>
  <separator name="ionic" >
   <i type="int" name="NSW">   200</i>
   <i type="int" name="IBRION">     2</i>
   <i type="int" name="ISIF">     2</i>
   <i name="PSTRESS">      0.00000000</i>
   <i name="EDIFFG">     -0.01000000</i>
   <i type="int" name="NFREE">     1</i>
   <i name="POTIM">      0.30000000</i>
   <i name="SMASS">     -3.00000000</i>
   <i name="SCALEE">      1.00000000</i>
  </separator>
  <separator name="ionic md" >
   <i name="TEBEG">      0.00010000</i>
   <i name="TEEND">      0.00010000</i>
   <i type="int" name="NBLOCK">     1</i>
   <i type="int" name="KBLOCK">   200</i>
   <i type="int" name="NPACO">   256</i>
   <i name="APACO">     16.00000000</i>
  </separator>
  <separator name="symmetry" >
   <i type="int" name="ISYM">     2</i>
   <i name="SYMPREC">      0.00001000</i>
  </separator>
  <separator name="dos" >
   <i type="logical" name="LORBIT"> F  </i>
   <v name="RWIGS">     -1.00000000</v>
   <i type="int" name="NEDOS">   301</i>
   <i name="EMIN">     10.00000000</i>
   <i name="EMAX">    -10.00000000</i>
   <i name="EFERMI">      0.00000000</i>
  </separator>
  <separator name="writing" >
   <i type="int" name="NWRITE">     2</i>
   <i type="logical" name="LWAVE"> F  </i>
   <i type="logical" name="LCHARG"> F  </i>
   <i type="logical" name="LPARD"> F  </i>
   <i type="logical" name="LVTOT"> F  </i>
   <i type="logical" name="LVHAR"> F  </i>
   <i type="logical" name="LELF"> F  </i>
   <i type="logical" name="LOPTICS"> F  </i>
   <v name="STM">      0.00000000      0.00000000      0.00000000      0.00000000      0.00000000      0.00000000      0.00000000</v>
  </separator>
  <separator name="performance" >
   <i type="int" name="NPAR">     4</i>
   <i type="int" name="NSIM">     4</i>
   <i type="int" name="NBLK">    -1</i>
   <i type="logical" name="LPLANE"> T  </i>
   <i type="logical" name="LSCALAPACK"> T  </i>
   <i type="logical" name="LSCAAWARE"> F  </i>
   <i type="logical" name="LSCALU"> F  </i>
   <i type="logical" name="LASYNC"> F  </i>
   <i type="logical" name="LORBITALREAL"> F  </i>
  </separator>
  <separator name="miscellaneous" >
   <i type="int" name="IDIOT">     3</i>
   <i type="logical" name="LMUSIC"> F  </i>
   <v name="POMASS">     30.97400000</v>
   <v name="DARWINR">      0.00000000</v>
   <v name="DARWINV">      1.00000000</v>
   <i type="logical" name="LCORR"> T  </i>
  </separator>
  <i type="logical" name="GGA_COMPAT"> T  </i>
  <i type="logical" name="LBERRY"> F  </i>
  <i type="int" name="ICORELEVEL">     0</i>
  <i type="logical" name="LDAU"> F  </i>
  <i type="int" name="I_CONSTRAINED_M">     0</i>
  <separator name="electronic exchange-correlation" >
   <i type="string" name="GGA">--</i>
   <i type="int" name="VOSKOWN">     0</i>
   <i type="logical" name="LHFCALC"> F  </i>
   <i type="string" name="PRECFOCK"></i>
   <i type="logical" name="LSYMGRAD"> F  </i>
   <i type="logical" name="LHFONE"> F  </i>
   <i type="logical" name="LRHFCALC"> F  </i>
   <i type="logical" name="LTHOMAS"> F  </i>
   <i type="logical" name="LMODELHF"> F  </i>
   <i name="ENCUT4O">     -1.00000000</i>
   <i type="int" name="EXXOEP">     0</i>
   <i type="int" name="FOURORBIT">     0</i>
   <i name="AEXX">      0.00000000</i>
   <i name="HFALPHA">      0.00000000</i>
   <i name="MCALPHA">      0.00000000</i>
   <i name="ALDAX">      1.00000000</i>
   <i name="AGGAX">      1.00000000</i>
   <i name="ALDAC">      1.00000000</i>
   <i name="AGGAC">      1.00000000</i>
   <i type="int" name="NKREDX">     1</i>
   <i type="int" name="NKREDY">     1</i>
   <i type="int" name="NKREDZ">     1</i>
   <i type="logical" name="SHIFTRED"> F  </i>
   <i type="logical" name="ODDONLY"> F  </i>
   <i type="logical" name="EVENONLY"> F  </i>
   <i type="int" name="LMAXFOCK">     0</i>
   <i type="int" name="NMAXFOCKAE">     0</i>
   <i type="logical" name="LFOCKAEDFT"> F  </i>
   <i name="HFSCREEN">      0.00000000</i>
   <i name="HFSCREENC">      0.00000000</i>
   <i type="int" name="NBANDSGWLOW">     0</i>
  </separator>
  <separator name="vdW DFT" >
   <i type="logical" name="LUSE_VDW"> F  </i>
   <i name="Zab_VDW">     -0.84910000</i>
   <i name="PARAM1">      0.12340000</i>
   <i name="PARAM2">      1.00000000</i>
   <i name="PARAM3">      0.00000000</i>
  </separator>
  <separator name="model GW" >
   <i type="int" name="MODEL_GW">     0</i>
   <i name="MODEL_EPS0">     46.24378345</i>
   <i name="MODEL_ALPHA">      1.00000000</i>
  </separator>
  <separator name="linear response parameters" >
   <i type="logical" name="LEPSILON"> F  </i>
   <i type="logical" name="LRPA"> F  </i>
   <i type="logical" name="LNABLA"> F  </i>
   <i type="logical" name="LVEL"> F  </i>
   <i type="int" name="KINTER">     0</i>
   <i name="CSHIFT">      0.10000000</i>
   <i name="OMEGAMAX">     -1.00000000</i>
   <i name="DEG_THRESHOLD">      0.00200000</i>
  </separator>
  <separator name="orbital magnetization" >
   <i type="logical" name="NUCIND"> F  </i>
   <v name="MAGPOS">      0.00000000      0.00000000      0.00000000</v>
   <i type="logical" name="LNICSALL"> T  </i>
   <i type="logical" name="ORBITALMAG"> F  </i>
   <i type="logical" name="LMAGBLOCH"> F  </i>
   <i type="logical" name="LCHIMAG"> F  </i>
   <i type="logical" name="LGAUGE"> T  </i>
   <i type="int" name="MAGATOM">     0</i>
   <v name="MAGDIPOL">      0.00000000      0.00000000      0.00000000</v>
   <v name="AVECCONST">      0.00000000      0.00000000      0.00000000</v>
  </separator>
  <separator name="response functions" >
   <i type="logical" name="LADDER"> F  </i>
   <i type="logical" name="LFXC"> F  </i>
   <i type="logical" name="LHARTREE"> T  </i>
   <i type="int" name="IBSE">     0</i>
   <v type="int" name="KPOINT">    -1     0     0     0</v>
   <i type="logical" name="LTCTE"> F  </i>
   <i type="logical" name="LTETE"> F  </i>
   <i type="logical" name="LTRIPLET"> F  </i>
   <i type="logical" name="LFXCEPS"> F  </i>
   <i type="logical" name="LFXHEG"> F  </i>
   <i type="int" name="NATURALO">     0</i>
   <i type="logical" name="L2ORDER"> F  </i>
   <i type="logical" name="LUSEW"> F  </i>
   <i name="ENCUTGW">     -2.00000000</i>
   <i name="ENCUTGWSOFT">     -2.00000000</i>
   <i name="ENCUTLF">     -1.00000000</i>
   <i type="int" name="LMAXMP2">    -1</i>
   <i name="SCISSOR">      0.00000000</i>
   <i type="int" name="NOMEGA">     0</i>
   <i type="int" name="NOMEGAR">     0</i>
   <i type="int" name="NBANDSGW">    -1</i>
   <i type="int" name="NBANDSO">    -1</i>
   <i type="int" name="NBANDSV">    -1</i>
   <i type="int" name="NELM">   250</i>
   <i type="int" name="NELMHF">     1</i>
   <i type="int" name="DIM">     3</i>
   <i type="int" name="ANTIRES">     0</i>
   <i name="OMEGAMAX">    -30.00000000</i>
   <i name="OMEGAMIN">    -30.00000000</i>
   <i name="OMEGATL">   -200.00000000</i>
   <i type="int" name="OMEGAGRID">     0</i>
   <i name="CSHIFT">     -0.10000000</i>
   <i type="logical" name="SELFENERGY"> F  </i>
   <i type="logical" name="LSPECTRAL"> F  </i>
   <i type="logical" name="LSPECTRALGW"> F  </i>
   <i type="logical" name="LSINGLES"> F  </i>
   <i type="logical" name="LFERMIGW"> F  </i>
   <i type="logical" name="ODDONLYGW"> F  </i>
   <i type="logical" name="EVENONLYGW"> F  </i>
   <i type="int" name="NKREDLFX">     1</i>
   <i type="int" name="NKREDLFY">     1</i>
   <i type="int" name="NKREDLFZ">     1</i>
   <i type="int" name="MAXMEM">  1800</i>
   <i type="int" name="TELESCOPE">     0</i>
   <i type="int" name="TAUPAR">     1</i>
   <i type="int" name="OMEGAPAR">    -1</i>
   <i name="LAMBDA">      1.00000000</i>
  </separator>
  <separator name="External order field" >
   <i name="OFIELD_KAPPA">      0.00000000</i>
   <v name="OFIELD_K">      0.00000000      0.00000000      0.00000000</v>
   <i name="OFIELD_Q6_NEAR">      0.00000000</i>
   <i name="OFIELD_Q6_FAR">      0.00000000</i>
   <i name="OFIELD_A">      0.00000000</i>
  </separator>
 </parameters>
 <atominfo>
  <atoms>       4 </atoms>
  <types>       1 </types>
  <array name="atoms" >
   <dimension dim="1">ion</dimension>
   <field type="string">element</field>
   <field type="int">atomtype</field>
   <set>
    <rc><c>P </c><c>   1</c></rc>
    <rc><c>P </c><c>   1</c></rc>
    <rc><c>P </c><c>   1</c></rc>
    <rc><c>P </c><c>   1</c></rc>
   </set>
  </array>
  <array name="atomtypes" >
   <dimension dim="1">type</dimension>
   <field type="int">atomspertype</field>
   <field type="string">element</field>
   <field>mass</field>
   <field>valence</field>
   <field type="string">pseudopotential</field>
   <set>
    <rc><c>   4</c><c>P </c><c>     30.97400000</c><c>      5.00000000</c><c>  PAW_PBE P 06Sep2000                   </c></rc>
   </set>
  </array>
 </atominfo>
 <structure name="initialpos" >
  <crystal>
   <varray name="basis" >
    <v>       3.29720400       0.00000000       0.00000000 </v>
    <v>       0.00000000       4.66935600      -0.00005300 </v>
    <v>       0.00000000       0.00000000      20.02439000 </v>
   </varray>
   <i name="volume">    308.29188964 </i>
   <varray name="rec_basis" >
    <v>       0.30328727       0.00000000       0.00000000 </v>
    <v>       0.00000000       0.21416230       0.00000000 </v>
    <v>       0.00000000       0.00000057       0.04993910 </v>
   </varray>
  </crystal>
  <varray name="positions" >
   <v>       0.50000000       0.91077300       0.55252100 </v>
   <v>       0.50000000       0.08922700       0.44747900 </v>
   <v>       0.00000000       0.41076900       0.44747900 </v>
   <v>       0.00000000       0.58923100       0.55252100 </v>
  </varray>
 </structure>
 <calculation>
  <scstep>
   <time name="dav">    1.56    1.56</time>
   <time name="total">    1.59    1.59</time>
   <energy>
    <i name="alphaZ">      5.20338385 </i>
    <i name="ewald">   1840.16049897 </i>
    <i name="hartreedc">  -2434.03053743 </i>
    <i name="XCdc">     12.94475609 </i>
    <i name="pawpsdc">    559.04011960 </i>
    <i name="pawaedc">   -526.39432044 </i>
    <i name="eentropy">     -0.00062405 </i>
    <i name="bandstr">    -28.06771866 </i>
    <i name="atom">    704.16778566 </i>
    <i name="e_fr_energy">    133.02334359 </i>
    <i name="e_wo_entrp">    133.02396764 </i>
    <i name="e_0_energy">    133.02365561 </i>
   </energy>
  </scstep>
  <scstep>
   <time name="dav">    2.11    2.11</time>
   <time name="total">    2.11    2.12</time>
   <energy>
    <i name="e_fr_energy">     -6.40363052 </i>
    <i name="e_wo_entrp">     -6.40363052 </i>
    <i name="e_0_energy">     -6.40363052 </i>
   </energy>
  </scstep>
  <scstep>
   <time name="dav">    1.95    1.95</time>
   <time name="total">    1.95    1.96</time>
   <energy>
    <i name="e_fr_energy">    -21.35423297 </i>
    <i name="e_wo_entrp">    -21.35423297 </i>
    <i name="e_0_energy">    -21.35423297 </i>
   </energy>
  </scstep>
  <scstep>
   <time name="dav">    1.93    1.93</time>
   <time name="total">    1.93    1.93</time>
   <energy>
    <i name="e_fr_energy">    -21.65107992 </i>
    <i name="e_wo_entrp">    -21.65107992 </i>
    <i name="e_0_energy">    -21.65107992 </i>
   </energy>
  </scstep>
  <scstep>
   <time name="dav">    2.08    2.08</time>
   <time name="total">    2.18    2.18</time>
   <energy>
    <i name="e_fr_energy">    -21.66095699 </i>
    <i name="e_wo_entrp">    -21.66095699 </i>
    <i name="e_0_energy">    -21.66095699 </i>
   </energy>
  </scstep>
  <scstep>
   <time name="dav">    1.91    1.91</time>
   <time name="total">    2.03    2.03</time>
   <energy>
    <i name="e_fr_energy">    -21.52089203 </i>
    <i name="e_wo_entrp">    -21.52089203 </i>
    <i name="e_0_energy">    -21.52089203 </i>
   </energy>
  </scstep>
  <scstep>
   <time name="dav">    1.83    1.83</time>
   <time name="total">    1.94    1.95</time>
   <energy>
    <i name="e_fr_energy">    -21.45457218 </i>
    <i name="e_wo_entrp">    -21.45457218 </i>
    <i name="e_0_energy">    -21.45457218 </i>
   </energy>
  </scstep>
  <scstep>
   <time name="dav">    1.89    1.89</time>
   <time name="total">    2.01    2.01</time>
   <energy>
    <i name="e_fr_energy">    -21.45398590 </i>
    <i name="e_wo_entrp">    -21.45398590 </i>
    <i name="e_0_energy">    -21.45398590 </i>
   </energy>
  </scstep>
  <scstep>
   <time name="dav">    2.22    2.22</time>
   <time name="total">    2.34    2.34</time>
   <energy>
    <i name="e_fr_energy">    -21.45384068 </i>
    <i name="e_wo_entrp">    -21.45384068 </i>
    <i name="e_0_energy">    -21.45384068 </i>
   </energy>
  </scstep>
  <scstep>
   <time name="dav">    1.90    1.90</time>
   <time name="total">    2.02    2.02</time>
   <energy>
    <i name="e_fr_energy">    -21.45367900 </i>
    <i name="e_wo_entrp">    -21.45367900 </i>
    <i name="e_0_energy">    -21.45367900 </i>
   </energy>
  </scstep>
  <scstep>
   <time name="dav">    1.90    1.90</time>
   <time name="total">    2.02    2.02</time>
   <energy>
    <i name="e_fr_energy">    -21.45359302 </i>
    <i name="e_wo_entrp">    -21.45359302 </i>
    <i name="e_0_energy">    -21.45359302 </i>
   </energy>
  </scstep>
  <scstep>
   <time name="dav">    1.71    1.71</time>
   <time name="total">    1.82    1.82</time>
   <energy>
    <i name="e_fr_energy">    -21.45396604 </i>
    <i name="e_wo_entrp">    -21.45396604 </i>
    <i name="e_0_energy">    -21.45396604 </i>
   </energy>
  </scstep>
  <scstep>
   <time name="dav">    1.70    1.70</time>
   <time name="total">    1.82    1.82</time>
   <energy>
    <i name="e_fr_energy">    -21.45405739 </i>
    <i name="e_wo_entrp">    -21.45405739 </i>
    <i name="e_0_energy">    -21.45405739 </i>
   </energy>
  </scstep>
  <scstep>
   <time name="dav">    1.57    1.57</time>
   <time name="total">    1.69    1.69</time>
   <energy>
    <i name="e_fr_energy">    -21.45419638 </i>
    <i name="e_wo_entrp">    -21.45419638 </i>
    <i name="e_0_energy">    -21.45419638 </i>
   </energy>
  </scstep>
  <scstep>
   <time name="dav">    1.62    1.62</time>
   <time name="total">    1.74    1.74</time>
   <energy>
    <i name="e_fr_energy">    -21.45422672 </i>
    <i name="e_wo_entrp">    -21.45422672 </i>
    <i name="e_0_energy">    -21.45422672 </i>
   </energy>
  </scstep>
  <scstep>
   <time name="dav">    1.52    1.52</time>
   <time name="total">    1.64    1.64</time>
   <energy>
    <i name="e_fr_energy">    -21.45425905 </i>
    <i name="e_wo_entrp">    -21.45425905 </i>
    <i name="e_0_energy">    -21.45425905 </i>
   </energy>
  </scstep>
  <scstep>
   <time name="dav">    1.56    1.56</time>
   <time name="total">    1.58    1.58</time>
   <energy>
    <i name="alphaZ">      5.20338385 </i>
    <i name="ewald">   1840.16049897 </i>
    <i name="hartreedc">  -2449.06675441 </i>
    <i name="XCdc">     13.99828167 </i>
    <i name="pawpsdc">   2061.50848575 </i>
    <i name="pawaedc">  -2029.18692566 </i>
    <i name="eentropy">     -0.00000000 </i>
    <i name="bandstr">   -168.23901742 </i>
    <i name="atom">    704.16778566 </i>
    <i name="e_fr_energy">    -21.45426159 </i>
    <i name="e_wo_entrp">    -21.45426159 </i>
    <i name="e_0_energy">    -21.45426159 </i>
   </energy>
  </scstep>
  <structure>
   <crystal>
    <varray name="basis" >
     <v>       3.29720400       0.00000000       0.00000000 </v>
     <v>       0.00000000       4.66935600      -0.00005300 </v>
     <v>       0.00000000       0.00000000      20.02439000 </v>
    </varray>
    <i name="volume">    308.29188964 </i>
    <varray name="rec_basis" >
     <v>       0.30328727       0.00000000       0.00000000 </v>
     <v>       0.00000000       0.21416230       0.00000000 </v>
     <v>       0.00000000       0.00000057       0.04993910 </v>
    </varray>
   </crystal>
   <varray name="positions" >
    <v>       0.50000000       0.91077300       0.55252100 </v>
    <v>       0.50000000       0.08922700       0.44747900 </v>
    <v>       0.00000000       0.41076900       0.44747900 </v>
    <v>       0.00000000       0.58923100       0.55252100 </v>
   </varray>
  </structure>
  <varray name="forces" >
   <v>       0.00000020      -0.13678763      -0.02839998 </v>
   <v>      -0.00000020       0.13678763       0.02839998 </v>
   <v>      -0.00000023      -0.13681665       0.02840556 </v>
   <v>       0.00000023       0.13681665      -0.02840556 </v>
  </varray>
  <varray name="stress" >
   <v>      -1.34271783      -0.00000250       0.00000173 </v>
   <v>      -0.00000247      -3.39306458       0.00035344 </v>
   <v>       0.00000174       0.00035343      -0.68487204 </v>
  </varray>
  <energy>
   <i name="e_fr_energy">    -21.45426159 </i>
   <i name="e_wo_entrp">    -21.45426159 </i>
   <i name="e_0_energy">     -0.00000000 </i>
  </energy>
  <time name="totalsc">   33.21   33.26</time>
 </calculation>
 <calculation>
  <scstep>
   <time name="dav">    1.67    1.67</time>
   <time name="total">    1.79    1.79</time>
   <energy>
    <i name="alphaZ">      5.20338385 </i>
    <i name="ewald">   1841.50796864 </i>
    <i name="hartreedc">  -2450.19029499 </i>
    <i name="XCdc">     14.02182679 </i>
    <i name="pawpsdc">   2061.11785207 </i>
    <i name="pawaedc">  -2028.79633889 </i>
    <i name="eentropy">     -0.00000000 </i>
    <i name="bandstr">   -168.48785084 </i>
    <i name="atom">    704.16778566 </i>
    <i name="e_fr_energy">    -21.45566771 </i>
    <i name="e_wo_entrp">    -21.45566771 </i>
    <i name="e_0_energy">    -21.45566771 </i>
   </energy>
  </scstep>
  <scstep>
   <time name="dav">    2.00    2.00</time>
   <time name="total">    2.12    2.12</time>
   <energy>
    <i name="e_fr_energy">    -21.45588373 </i>
    <i name="e_wo_entrp">    -21.45588373 </i>
    <i name="e_0_energy">    -21.45588373 </i>
   </energy>
  </scstep>
  <scstep>
   <time name="dav">    2.04    2.04</time>
   <time name="total">    2.16    2.16</time>
   <energy>
    <i name="e_fr_energy">    -21.45588385 </i>
    <i name="e_wo_entrp">    -21.45588385 </i>
    <i name="e_0_energy">    -21.45588385 </i>
   </energy>
  </scstep>
  <scstep>
   <time name="dav">    1.50    1.50</time>
   <time name="total">    1.61    1.61</time>
   <energy>
    <i name="e_fr_energy">    -21.45588666 </i>
    <i name="e_wo_entrp">    -21.45588666 </i>
    <i name="e_0_energy">    -21.45588666 </i>
   </energy>
  </scstep>
  <scstep>
   <time name="dav">    1.30    1.30</time>
   <time name="total">    1.42    1.42</time>
   <energy>
    <i name="e_fr_energy">    -21.45588710 </i>
    <i name="e_wo_entrp">    -21.45588710 </i>
    <i name="e_0_energy">    -21.45588710 </i>
   </energy>
  </scstep>
  <scstep>
   <time name="dav">    1.23    1.23</time>
   <time name="total">    1.25    1.25</time>
   <energy>
    <i name="alphaZ">      5.20338385 </i>
    <i name="ewald">   1841.50796864 </i>
    <i name="hartreedc">  -2450.20244995 </i>
    <i name="XCdc">     14.02449985 </i>
    <i name="pawpsdc">   2076.17687005 </i>
    <i name="pawaedc">  -2043.86091382 </i>
    <i name="eentropy">     -0.00000000 </i>
    <i name="bandstr">   -168.47303204 </i>
    <i name="atom">    704.16778566 </i>
    <i name="e_fr_energy">    -21.45588777 </i>
    <i name="e_wo_entrp">    -21.45588777 </i>
    <i name="e_0_energy">    -21.45588777 </i>
   </energy>
  </scstep>
  <structure>
   <crystal>
    <varray name="basis" >
     <v>       3.29720400       0.00000000       0.00000000 </v>
     <v>       0.00000000       4.66935600      -0.00005300 </v>
     <v>       0.00000000       0.00000000      20.02439000 </v>
    </varray>
    <i name="volume">    308.29188964 </i>
    <varray name="rec_basis" >
     <v>       0.30328727       0.00000000       0.00000000 </v>
     <v>       0.00000000       0.21416230       0.00000000 </v>
     <v>       0.00000000       0.00000057       0.04993910 </v>
    </varray>
   </crystal>
   <varray name="positions" >
    <v>       0.50000000       0.90992505       0.55247995 </v>
    <v>       0.50000000       0.09007495       0.44752005 </v>
    <v>      -0.00000000       0.40992087       0.44752006 </v>
    <v>       0.00000000       0.59007913       0.55247994 </v>
   </varray>
  </structure>
  <varray name="forces" >
   <v>       0.00000002      -0.05376942      -0.02861349 </v>
   <v>      -0.00000002       0.05376942       0.02861349 </v>
   <v>      -0.00000004      -0.05379341       0.02861534 </v>
   <v>       0.00000004       0.05379341      -0.02861534 </v>
  </varray>
  <varray name="stress" >
   <v>      -0.98398703       0.00000139      -0.00000064 </v>
   <v>       0.00000131      -2.17560002       0.00028519 </v>
   <v>      -0.00000061       0.00028518      -0.71534807 </v>
  </varray>
  <energy>
   <i name="e_fr_energy">    -21.45588777 </i>
   <i name="e_wo_entrp">    -21.45588777 </i>
   <i name="e_0_energy">     -0.00000000 </i>
  </energy>
  <time name="totalsc">   11.17   11.21</time>
 </calculation>
 <calculation>
  <scstep>
   <time name="dav">    1.65    1.65</time>
   <time name="total">    1.76    1.77</time>
   <energy>
    <i name="alphaZ">      5.20338385 </i>
    <i name="ewald">   1842.48061066 </i>
    <i name="hartreedc">  -2450.99900341 </i>
    <i name="XCdc">     14.04141244 </i>
    <i name="pawpsdc">   2076.32636907 </i>
    <i name="pawaedc">  -2044.01037201 </i>
    <i name="eentropy">     -0.00000000 </i>
    <i name="bandstr">   -168.66630195 </i>
    <i name="atom">    704.16778566 </i>
    <i name="e_fr_energy">    -21.45611570 </i>
    <i name="e_wo_entrp">    -21.45611570 </i>
    <i name="e_0_energy">    -21.45611570 </i>
   </energy>
  </scstep>
  <scstep>
   <time name="dav">    2.00    2.00</time>
   <time name="total">    2.11    2.11</time>
   <energy>
    <i name="e_fr_energy">    -21.45623007 </i>
    <i name="e_wo_entrp">    -21.45623007 </i>
    <i name="e_0_energy">    -21.45623007 </i>
   </energy>
  </scstep>
  <scstep>
   <time name="dav">    1.82    1.82</time>
   <time name="total">    1.94    1.94</time>
   <energy>
    <i name="e_fr_energy">    -21.45622983 </i>
    <i name="e_wo_entrp">    -21.45622983 </i>
    <i name="e_0_energy">    -21.45622983 </i>
   </energy>
  </scstep>
  <scstep>
   <time name="dav">    1.40    1.40</time>
   <time name="total">    1.51    1.51</time>
   <energy>
    <i name="e_fr_energy">    -21.45623133 </i>
    <i name="e_wo_entrp">    -21.45623133 </i>
    <i name="e_0_energy">    -21.45623133 </i>
   </energy>
  </scstep>
  <scstep>
   <time name="dav">    1.24    1.24</time>
   <time name="total">    1.36    1.36</time>
   <energy>
    <i name="e_fr_energy">    -21.45623121 </i>
    <i name="e_wo_entrp">    -21.45623121 </i>
    <i name="e_0_energy">    -21.45623121 </i>
   </energy>
  </scstep>
  <scstep>
   <time name="dav">    1.20    1.20</time>
   <time name="total">    1.22    1.22</time>
   <energy>
    <i name="alphaZ">      5.20338385 </i>
    <i name="ewald">   1842.48061066 </i>
    <i name="hartreedc">  -2451.00086406 </i>
    <i name="XCdc">     14.04331928 </i>
    <i name="pawpsdc">   2087.27818447 </i>
    <i name="pawaedc">  -2054.96624398 </i>
    <i name="eentropy">     -0.00000000 </i>
    <i name="bandstr">   -168.66240737 </i>
    <i name="atom">    704.16778566 </i>
    <i name="e_fr_energy">    -21.45623150 </i>
    <i name="e_wo_entrp">    -21.45623150 </i>
    <i name="e_0_energy">    -21.45623150 </i>
   </energy>
  </scstep>
  <structure>
   <crystal>
    <varray name="basis" >
     <v>       3.29720400       0.00000000       0.00000000 </v>
     <v>       0.00000000       4.66935600      -0.00005300 </v>
     <v>       0.00000000       0.00000000      20.02439000 </v>
    </varray>
    <i name="volume">    308.29188964 </i>
    <varray name="rec_basis" >
     <v>       0.30328727       0.00000000       0.00000000 </v>
     <v>       0.00000000       0.21416230       0.00000000 </v>
     <v>       0.00000000       0.00000057       0.04993910 </v>
    </varray>
   </crystal>
   <varray name="positions" >
    <v>       0.50000000       0.90931473       0.55245040 </v>
    <v>       0.50000000       0.09068527       0.44754960 </v>
    <v>      -0.00000000       0.40931042       0.44754961 </v>
    <v>       0.00000000       0.59068958       0.55245039 </v>
   </varray>
  </structure>
  <varray name="forces" >
   <v>       0.00000003       0.00687503      -0.02897511 </v>
   <v>      -0.00000003      -0.00687503       0.02897511 </v>
   <v>       0.00000009       0.00685457       0.02897399 </v>
   <v>      -0.00000009      -0.00685457      -0.02897399 </v>
  </varray>
  <varray name="stress" >
   <v>      -0.71428799       0.00000118      -0.00000042 </v>
   <v>       0.00000109      -1.28748784       0.00023667 </v>
   <v>      -0.00000044       0.00023666      -0.71954565 </v>
  </varray>
  <energy>
   <i name="e_fr_energy">    -21.45623150 </i>
   <i name="e_wo_entrp">    -21.45623150 </i>
   <i name="e_0_energy">     -0.00000000 </i>
  </energy>
  <time name="totalsc">   10.71   10.73</time>
 </calculation>
 <calculation>
  <scstep>
   <time name="dav">    1.53    1.53</time>
   <time name="total">    1.64    1.64</time>
   <energy>
    <i name="alphaZ">      5.20338385 </i>
    <i name="ewald">   1843.39931430 </i>
    <i name="hartreedc">  -2451.86602944 </i>
    <i name="XCdc">     14.04947935 </i>
    <i name="pawpsdc">   2087.39903682 </i>
    <i name="pawaedc">  -2055.08708023 </i>
    <i name="eentropy">     -0.00000000 </i>
    <i name="bandstr">   -168.72219311 </i>
    <i name="atom">    704.16778566 </i>
    <i name="e_fr_energy">    -21.45630280 </i>
    <i name="e_wo_entrp">    -21.45630280 </i>
    <i name="e_0_energy">    -21.45630280 </i>
   </energy>
  </scstep>
  <scstep>
   <time name="dav">    1.92    1.92</time>
   <time name="total">    2.03    2.04</time>
   <energy>
    <i name="e_fr_energy">    -21.45632127 </i>
    <i name="e_wo_entrp">    -21.45632127 </i>
    <i name="e_0_energy">    -21.45632127 </i>
   </energy>
  </scstep>
  <scstep>
   <time name="dav">    1.29    1.29</time>
   <time name="total">    1.41    1.41</time>
   <energy>
    <i name="e_fr_energy">    -21.45632111 </i>
    <i name="e_wo_entrp">    -21.45632111 </i>
    <i name="e_0_energy">    -21.45632111 </i>
   </energy>
  </scstep>
  <scstep>
   <time name="dav">    1.22    1.22</time>
   <time name="total">    1.34    1.34</time>
   <energy>
    <i name="e_fr_energy">    -21.45632167 </i>
    <i name="e_wo_entrp">    -21.45632167 </i>
    <i name="e_0_energy">    -21.45632167 </i>
   </energy>
  </scstep>
  <scstep>
   <time name="dav">    1.21    1.21</time>
   <time name="total">    1.32    1.32</time>
   <energy>
    <i name="e_fr_energy">    -21.45632174 </i>
    <i name="e_wo_entrp">    -21.45632174 </i>
    <i name="e_0_energy">    -21.45632174 </i>
   </energy>
  </scstep>
  <scstep>
   <time name="dav">    1.19    1.19</time>
   <time name="total">    1.21    1.21</time>
   <energy>
    <i name="alphaZ">      5.20338385 </i>
    <i name="ewald">   1843.39931430 </i>
    <i name="hartreedc">  -2451.86181643 </i>
    <i name="XCdc">     14.04984231 </i>
    <i name="pawpsdc">   2090.49928272 </i>
    <i name="pawaedc">  -2058.18834396 </i>
    <i name="eentropy">     -0.00000000 </i>
    <i name="bandstr">   -168.72577032 </i>
    <i name="atom">    704.16778566 </i>
    <i name="e_fr_energy">    -21.45632188 </i>
    <i name="e_wo_entrp">    -21.45632188 </i>
    <i name="e_0_energy">    -21.45632188 </i>
   </energy>
  </scstep>
  <structure>
   <crystal>
    <varray name="basis" >
     <v>       3.29720400       0.00000000       0.00000000 </v>
     <v>       0.00000000       4.66935600      -0.00005300 </v>
     <v>       0.00000000       0.00000000      20.02439000 </v>
    </varray>
    <i name="volume">    308.29188964 </i>
    <varray name="rec_basis" >
     <v>       0.30328727       0.00000000       0.00000000 </v>
     <v>       0.00000000       0.21416230       0.00000000 </v>
     <v>       0.00000000       0.00000057       0.04993910 </v>
    </varray>
   </crystal>
   <varray name="positions" >
    <v>       0.50000000       0.90931366       0.55240007 </v>
    <v>       0.50000000       0.09068634       0.44759993 </v>
    <v>      -0.00000000       0.40930919       0.44759993 </v>
    <v>       0.00000000       0.59069081       0.55240007 </v>
   </varray>
  </structure>
  <varray name="forces" >
   <v>      -0.00000005       0.00378174      -0.01459056 </v>
   <v>       0.00000005      -0.00378174       0.01459056 </v>
   <v>       0.00000000       0.00376521       0.01458959 </v>
   <v>      -0.00000000      -0.00376521      -0.01458959 </v>
  </varray>
  <varray name="stress" >
   <v>      -0.69114707      -0.00000023      -0.00000070 </v>
   <v>      -0.00000026      -1.23129423       0.00019490 </v>
   <v>      -0.00000071       0.00019489      -0.39758687 </v>
  </varray>
  <energy>
   <i name="e_fr_energy">    -21.45632188 </i>
   <i name="e_wo_entrp">    -21.45632188 </i>
   <i name="e_0_energy">     -0.00000000 </i>
  </energy>
  <time name="totalsc">    9.77    9.78</time>
 </calculation>
 <calculation>
  <scstep>
   <time name="dav">    1.53    1.53</time>
   <time name="total">    1.64    1.65</time>
   <energy>
    <i name="alphaZ">      5.20338385 </i>
    <i name="ewald">   1844.33116112 </i>
    <i name="hartreedc">  -2452.73901100 </i>
    <i name="XCdc">     14.05607228 </i>
    <i name="pawpsdc">   2090.58454563 </i>
    <i name="pawaedc">  -2058.27358951 </i>
    <i name="eentropy">     -0.00000000 </i>
    <i name="bandstr">   -168.78668278 </i>
    <i name="atom">    704.16778566 </i>
    <i name="e_fr_energy">    -21.45633476 </i>
    <i name="e_wo_entrp">    -21.45633476 </i>
    <i name="e_0_energy">    -21.45633476 </i>
   </energy>
  </scstep>
  <scstep>
   <time name="dav">    1.90    1.90</time>
   <time name="total">    2.02    2.02</time>
   <energy>
    <i name="e_fr_energy">    -21.45635381 </i>
    <i name="e_wo_entrp">    -21.45635381 </i>
    <i name="e_0_energy">    -21.45635381 </i>
   </energy>
  </scstep>
  <scstep>
   <time name="dav">    1.27    1.27</time>
   <time name="total">    1.39    1.39</time>
   <energy>
    <i name="e_fr_energy">    -21.45635354 </i>
    <i name="e_wo_entrp">    -21.45635354 </i>
    <i name="e_0_energy">    -21.45635354 </i>
   </energy>
  </scstep>
  <scstep>
   <time name="dav">    1.23    1.23</time>
   <time name="total">    1.35    1.35</time>
   <energy>
    <i name="e_fr_energy">    -21.45635395 </i>
    <i name="e_wo_entrp">    -21.45635395 </i>
    <i name="e_0_energy">    -21.45635395 </i>
   </energy>
  </scstep>
  <scstep>
   <time name="dav">    1.19    1.19</time>
   <time name="total">    1.30    1.30</time>
   <energy>
    <i name="e_fr_energy">    -21.45635391 </i>
    <i name="e_wo_entrp">    -21.45635391 </i>
    <i name="e_0_energy">    -21.45635391 </i>
   </energy>
  </scstep>
  <scstep>
   <time name="dav">    1.17    1.17</time>
   <time name="total">    1.19    1.19</time>
   <energy>
    <i name="alphaZ">      5.20338385 </i>
    <i name="ewald">   1844.33116112 </i>
    <i name="hartreedc">  -2452.73811838 </i>
    <i name="XCdc">     14.05648056 </i>
    <i name="pawpsdc">   2093.58115626 </i>
    <i name="pawaedc">  -2061.27124763 </i>
    <i name="eentropy">     -0.00000000 </i>
    <i name="bandstr">   -168.78695541 </i>
    <i name="atom">    704.16778566 </i>
    <i name="e_fr_energy">    -21.45635397 </i>
    <i name="e_wo_entrp">    -21.45635397 </i>
    <i name="e_0_energy">    -21.45635397 </i>
   </energy>
  </scstep>
  <structure>
   <crystal>
    <varray name="basis" >
     <v>       3.29720400       0.00000000       0.00000000 </v>
     <v>       0.00000000       4.66935600      -0.00005300 </v>
     <v>       0.00000000       0.00000000      20.02439000 </v>
    </varray>
    <i name="volume">    308.29188964 </i>
    <varray name="rec_basis" >
     <v>       0.30328727       0.00000000       0.00000000 </v>
     <v>       0.00000000       0.21416230       0.00000000 </v>
     <v>       0.00000000       0.00000057       0.04993910 </v>
    </varray>
   </crystal>
   <varray name="positions" >
    <v>       0.50000000       0.90931257       0.55234904 </v>
    <v>       0.50000000       0.09068743       0.44765096 </v>
    <v>      -0.00000000       0.40930794       0.44765097 </v>
    <v>       0.00000000       0.59069206       0.55234903 </v>
   </varray>
  </structure>
  <varray name="forces" >
   <v>      -0.00000008       0.00065204      -0.00000336 </v>
   <v>       0.00000008      -0.00065204       0.00000336 </v>
   <v>      -0.00000004       0.00063946       0.00000265 </v>
   <v>       0.00000004      -0.00063946      -0.00000265 </v>
  </varray>
  <varray name="stress" >
   <v>      -0.66294085      -0.00000091      -0.00000062 </v>
   <v>      -0.00000099      -1.17504241       0.00015104 </v>
   <v>      -0.00000063       0.00015102      -0.07829385 </v>
  </varray>
  <energy>
   <i name="e_fr_energy">    -21.45635397 </i>
   <i name="e_wo_entrp">    -21.45635397 </i>
   <i name="e_0_energy">     -0.00000000 </i>
  </energy>
  <time name="totalsc">    9.64    9.66</time>
  <eigenvalues>
   <array>
    <dimension dim="1">band</dimension>
    <dimension dim="2">kpoint</dimension>
    <dimension dim="3">spin</dimension>
    <field>eigene</field>
    <field>occ</field>
    <set>
     <set comment="spin 1">
      <set comment="kpoint 1">
       <r>  -17.2377    1.0000 </r>
       <r>  -14.8113    1.0000 </r>
       <r>  -11.5331    1.0000 </r>
       <r>   -7.9587    1.0000 </r>
       <r>   -7.0603    1.0000 </r>
       <r>   -6.7753    1.0000 </r>
       <r>   -5.6006    1.0000 </r>
       <r>   -4.0481    1.0000 </r>
       <r>   -3.9301    1.0000 </r>
       <r>   -2.3281    1.0000 </r>
       <r>   -1.3812    0.0000 </r>
       <r>   -0.6501    0.0000 </r>
       <r>    0.3573    0.0000 </r>
       <r>    0.9597    0.0000 </r>
       <r>    2.1002    0.0000 </r>
       <r>    2.2928    0.0000 </r>
      </set>
      <set comment="kpoint 2">
       <r>  -17.2131    1.0000 </r>
       <r>  -14.7856    1.0000 </r>
       <r>  -11.5402    1.0000 </r>
       <r>   -7.9401    1.0000 </r>
       <r>   -7.0753    1.0000 </r>
       <r>   -6.7536    1.0000 </r>
       <r>   -5.7633    1.0000 </r>
       <r>   -4.2192    1.0000 </r>
       <r>   -3.9206    1.0000 </r>
       <r>   -2.3277    1.0000 </r>
       <r>   -1.3583    0.0000 </r>
       <r>   -0.4259    0.0000 </r>
       <r>    0.5796    0.0000 </r>
       <r>    0.8080    0.0000 </r>
       <r>    2.1256    0.0000 </r>
       <r>    2.3203    0.0000 </r>
      </set>
      <set comment="kpoint 3">
       <r>  -17.1394    1.0000 </r>
       <r>  -14.7085    1.0000 </r>
       <r>  -11.5660    1.0000 </r>
       <r>   -7.8851    1.0000 </r>
       <r>   -7.1360    1.0000 </r>
       <r>   -6.6889    1.0000 </r>
       <r>   -6.1665    1.0000 </r>
       <r>   -4.6226    1.0000 </r>
       <r>   -3.8951    1.0000 </r>
       <r>   -2.3427    1.0000 </r>
       <r>   -1.2900    0.0000 </r>
       <r>    0.1783    0.0000 </r>
       <r>    0.4274    0.0000 </r>
       <r>    1.1321    0.0000 </r>
       <r>    2.1983    0.0000 </r>
       <r>    2.4024    0.0000 </r>
      </set>
      <set comment="kpoint 4">
       <r>  -17.0169    1.0000 </r>
       <r>  -14.5801    1.0000 </r>
       <r>  -11.6235    1.0000 </r>
       <r>   -7.7956    1.0000 </r>
       <r>   -7.2931    1.0000 </r>
       <r>   -6.6593    1.0000 </r>
       <r>   -6.5824    1.0000 </r>
       <r>   -5.0550    1.0000 </r>
       <r>   -3.8638    1.0000 </r>
       <r>   -2.3917    1.0000 </r>
       <r>   -1.1774    0.0000 </r>
       <r>   -0.0499    0.0000 </r>
       <r>    1.0294    0.0000 </r>
       <r>    1.7507    0.0000 </r>
       <r>    2.2781    0.0000 </r>
       <r>    2.5388    0.0000 </r>
      </set>
      <set comment="kpoint 5">
       <r>  -16.8461    1.0000 </r>
       <r>  -14.4007    1.0000 </r>
       <r>  -11.7341    1.0000 </r>
       <r>   -7.6757    1.0000 </r>
       <r>   -7.6140    1.0000 </r>
       <r>   -7.1269    1.0000 </r>
       <r>   -6.4361    1.0000 </r>
       <r>   -5.3536    1.0000 </r>
       <r>   -3.8460    1.0000 </r>
       <r>   -2.4851    1.0000 </r>
       <r>   -1.0234    0.0000 </r>
       <r>   -0.5185    0.0000 </r>
       <r>    1.8838    0.0000 </r>
       <r>    1.9914    0.0000 </r>
       <r>    2.0018    0.0000 </r>
       <r>    2.6220    0.0000 </r>
      </set>
      <set comment="kpoint 6">
       <r>  -16.6279    1.0000 </r>
       <r>  -14.1707    1.0000 </r>
       <r>  -11.9217    1.0000 </r>
       <r>   -8.1072    1.0000 </r>
       <r>   -7.5324    1.0000 </r>
       <r>   -7.4965    1.0000 </r>
       <r>   -6.2535    1.0000 </r>
       <r>   -5.4644    1.0000 </r>
       <r>   -3.8709    1.0000 </r>
       <r>   -2.6316    1.0000 </r>
       <r>   -0.8978    0.0000 </r>
       <r>   -0.8340    0.0000 </r>
       <r>    1.3883    0.0000 </r>
       <r>    1.4469    0.0000 </r>
       <r>    2.6158    0.0000 </r>
       <r>    2.8409    0.0000 </r>
      </set>
      <set comment="kpoint 7">
       <r>  -16.3633    1.0000 </r>
       <r>  -13.8905    1.0000 </r>
       <r>  -12.2015    1.0000 </r>
       <r>   -8.7073    1.0000 </r>
       <r>   -7.7287    1.0000 </r>
       <r>   -7.3771    1.0000 </r>
       <r>   -6.0401    1.0000 </r>
       <r>   -5.4345    1.0000 </r>
       <r>   -3.9655    1.0000 </r>
       <r>   -2.8359    1.0000 </r>
       <r>   -1.1250    0.0000 </r>
       <r>   -0.6269    0.0000 </r>
       <r>    0.7709    0.0000 </r>
       <r>    0.9190    0.0000 </r>
       <r>    2.2448    0.0000 </r>
       <r>    3.1381    0.0000 </r>
      </set>
      <set comment="kpoint 8">
       <r>  -16.0541    1.0000 </r>
       <r>  -13.5608    1.0000 </r>
       <r>  -12.5692    1.0000 </r>
       <r>   -9.3485    1.0000 </r>
       <r>   -7.8172    1.0000 </r>
       <r>   -7.2293    1.0000 </r>
       <r>   -5.8044    1.0000 </r>
       <r>   -5.3275    1.0000 </r>
       <r>   -4.1256    1.0000 </r>
       <r>   -3.0943    1.0000 </r>
       <r>   -1.1724    0.0000 </r>
       <r>   -0.4681    0.0000 </r>
       <r>    0.1781    0.0000 </r>
       <r>    0.5152    0.0000 </r>
       <r>    1.7694    0.0000 </r>
       <r>    3.1313    0.0000 </r>
      </set>
      <set comment="kpoint 9">
       <r>  -15.7024    1.0000 </r>
       <r>  -13.1823    1.0000 </r>
       <r>  -13.0024    1.0000 </r>
       <r>   -9.9917    1.0000 </r>
       <r>   -7.7819    1.0000 </r>
       <r>   -7.1187    1.0000 </r>
       <r>   -5.5601    1.0000 </r>
       <r>   -5.1921    1.0000 </r>
       <r>   -4.2976    1.0000 </r>
       <r>   -3.3921    1.0000 </r>
       <r>   -1.0571    0.0000 </r>
       <r>   -0.5381    0.0000 </r>
       <r>   -0.3416    0.0000 </r>
       <r>    0.4413    0.0000 </r>
       <r>    1.2905    0.0000 </r>
       <r>    2.7671    0.0000 </r>
      </set>
      <set comment="kpoint 10">
       <r>  -15.3113    1.0000 </r>
       <r>  -13.4726    1.0000 </r>
       <r>  -12.7563    1.0000 </r>
       <r>  -10.6163    1.0000 </r>
       <r>   -7.6561    1.0000 </r>
       <r>   -7.0826    1.0000 </r>
       <r>   -5.3282    1.0000 </r>
       <r>   -5.0702    1.0000 </r>
       <r>   -4.4042    1.0000 </r>
       <r>   -3.7048    1.0000 </r>
       <r>   -0.8171    0.0000 </r>
       <r>   -0.7964    0.0000 </r>
       <r>   -0.7516    0.0000 </r>
       <r>    0.6827    0.0000 </r>
       <r>    0.8130    0.0000 </r>
       <r>    2.3432    0.0000 </r>
      </set>
      <set comment="kpoint 11">
       <r>  -14.8851    1.0000 </r>
       <r>  -13.9547    1.0000 </r>
       <r>  -12.2842    1.0000 </r>
       <r>  -11.2106    1.0000 </r>
       <r>   -7.4783    1.0000 </r>
       <r>   -7.1449    1.0000 </r>
       <r>   -5.1380    1.0000 </r>
       <r>   -5.0027    1.0000 </r>
       <r>   -4.3883    1.0000 </r>
       <r>   -4.0011    1.0000 </r>
       <r>   -1.0180    0.0000 </r>
       <r>   -1.0152    0.0000 </r>
       <r>   -0.4870    0.0000 </r>
       <r>    0.3467    0.0000 </r>
       <r>    1.0448    0.0000 </r>
       <r>    1.8984    0.0000 </r>
      </set>
      <set comment="kpoint 12">
       <r>  -14.4299    1.0000 </r>
       <r>  -14.4299    1.0000 </r>
       <r>  -11.7680    1.0000 </r>
       <r>  -11.7680    1.0000 </r>
       <r>   -7.2916    1.0000 </r>
       <r>   -7.2916    1.0000 </r>
       <r>   -5.0226    1.0000 </r>
       <r>   -5.0226    1.0000 </r>
       <r>   -4.2431    1.0000 </r>
       <r>   -4.2431    1.0000 </r>
       <r>   -1.1041    0.0000 </r>
       <r>   -1.1041    0.0000 </r>
       <r>   -0.0925    0.0000 </r>
       <r>   -0.0924    0.0000 </r>
       <r>    1.4587    0.0000 </r>
       <r>    1.4587    0.0000 </r>
      </set>
      <set comment="kpoint 13">
       <r>  -17.2169    1.0000 </r>
       <r>  -14.8427    1.0000 </r>
       <r>  -11.5354    1.0000 </r>
       <r>   -8.1234    1.0000 </r>
       <r>   -6.9487    1.0000 </r>
       <r>   -6.6878    1.0000 </r>
       <r>   -5.5847    1.0000 </r>
       <r>   -4.0639    1.0000 </r>
       <r>   -3.8437    1.0000 </r>
       <r>   -2.5229    1.0000 </r>
       <r>   -1.1990    0.0000 </r>
       <r>   -0.6338    0.0000 </r>
       <r>    0.3116    0.0000 </r>
       <r>    0.9502    0.0000 </r>
       <r>    2.1568    0.0000 </r>
       <r>    2.3223    0.0000 </r>
      </set>
      <set comment="kpoint 14">
       <r>  -17.1923    1.0000 </r>
       <r>  -14.8172    1.0000 </r>
       <r>  -11.5415    1.0000 </r>
       <r>   -8.1086    1.0000 </r>
       <r>   -6.9583    1.0000 </r>
       <r>   -6.6733    1.0000 </r>
       <r>   -5.7406    1.0000 </r>
       <r>   -4.2404    1.0000 </r>
       <r>   -3.8339    1.0000 </r>
       <r>   -2.5191    1.0000 </r>
       <r>   -1.1797    0.0000 </r>
       <r>   -0.4101    0.0000 </r>
       <r>    0.5268    0.0000 </r>
       <r>    0.8097    0.0000 </r>
       <r>    2.1812    0.0000 </r>
       <r>    2.3496    0.0000 </r>
      </set>
      <set comment="kpoint 15">
       <r>  -17.1186    1.0000 </r>
       <r>  -14.7406    1.0000 </r>
       <r>  -11.5638    1.0000 </r>
       <r>   -8.0675    1.0000 </r>
       <r>   -7.0001    1.0000 </r>
       <r>   -6.6483    1.0000 </r>
       <r>   -6.1065    1.0000 </r>
       <r>   -4.6523    1.0000 </r>
       <r>   -3.8142    1.0000 </r>
       <r>   -2.5206    1.0000 </r>
       <r>   -1.1250    0.0000 </r>
       <r>    0.1932    0.0000 </r>
       <r>    0.4155    0.0000 </r>
       <r>    1.1064    0.0000 </r>
       <r>    2.2507    0.0000 </r>
       <r>    2.4315    0.0000 </r>
      </set>
      <set comment="kpoint 16">
       <r>  -16.9962    1.0000 </r>
       <r>  -14.6131    1.0000 </r>
       <r>  -11.6157    1.0000 </r>
       <r>   -8.0156    1.0000 </r>
       <r>   -7.1132    1.0000 </r>
       <r>   -6.7937    1.0000 </r>
       <r>   -6.3525    1.0000 </r>
       <r>   -5.0930    1.0000 </r>
       <r>   -3.7960    1.0000 </r>
       <r>   -2.5460    1.0000 </r>
       <r>   -1.0353    0.0000 </r>
       <r>   -0.0426    0.0000 </r>
       <r>    1.0402    0.0000 </r>
       <r>    1.7388    0.0000 </r>
       <r>    2.3049    0.0000 </r>
       <r>    2.5658    0.0000 </r>
      </set>
      <set comment="kpoint 17">
       <r>  -16.8256    1.0000 </r>
       <r>  -14.4354    1.0000 </r>
       <r>  -11.7184    1.0000 </r>
       <r>   -8.0161    1.0000 </r>
       <r>   -7.3111    1.0000 </r>
       <r>   -7.1957    1.0000 </r>
       <r>   -6.2802    1.0000 </r>
       <r>   -5.3950    1.0000 </r>
       <r>   -3.7992    1.0000 </r>
       <r>   -2.6099    1.0000 </r>
       <r>   -0.9089    0.0000 </r>
       <r>   -0.4864    0.0000 </r>
       <r>    1.7869    0.0000 </r>
       <r>    1.9343    0.0000 </r>
       <r>    2.1030    0.0000 </r>
       <r>    2.5889    0.0000 </r>
      </set>
      <set comment="kpoint 18">
       <r>  -16.6076    1.0000 </r>
       <r>  -14.2081    1.0000 </r>
       <r>  -11.8963    1.0000 </r>
       <r>   -8.2609    1.0000 </r>
       <r>   -7.5536    1.0000 </r>
       <r>   -7.4190    1.0000 </r>
       <r>   -6.1206    1.0000 </r>
       <r>   -5.5040    1.0000 </r>
       <r>   -3.8511    1.0000 </r>
       <r>   -2.7254    1.0000 </r>
       <r>   -0.8336    0.0000 </r>
       <r>   -0.7481    0.0000 </r>
       <r>    1.2760    0.0000 </r>
       <r>    1.4750    0.0000 </r>
       <r>    2.6334    0.0000 </r>
       <r>    2.9589    0.0000 </r>
      </set>
      <set comment="kpoint 19">
       <r>  -16.3434    1.0000 </r>
       <r>  -13.9334    1.0000 </r>
       <r>  -12.1645    1.0000 </r>
       <r>   -8.7764    1.0000 </r>
       <r>   -7.7826    1.0000 </r>
       <r>   -7.3503    1.0000 </r>
       <r>   -5.9241    1.0000 </r>
       <r>   -5.4763    1.0000 </r>
       <r>   -3.9703    1.0000 </r>
       <r>   -2.9006    1.0000 </r>
       <r>   -1.0276    0.0000 </r>
       <r>   -0.5676    0.0000 </r>
       <r>    0.7489    0.0000 </r>
       <r>    0.8662    0.0000 </r>
       <r>    2.3893    0.0000 </r>
       <r>    3.2047    0.0000 </r>
      </set>
      <set comment="kpoint 20">
       <r>  -16.0346    1.0000 </r>
       <r>  -13.6173    1.0000 </r>
       <r>  -12.5143    1.0000 </r>
       <r>   -9.3899    1.0000 </r>
       <r>   -7.8684    1.0000 </r>
       <r>   -7.2274    1.0000 </r>
       <r>   -5.7084    1.0000 </r>
       <r>   -5.3852    1.0000 </r>
       <r>   -4.1355    1.0000 </r>
       <r>   -3.1319    1.0000 </r>
       <r>   -1.0518    0.0000 </r>
       <r>   -0.4414    0.0000 </r>
       <r>    0.2742    0.0000 </r>
       <r>    0.3578    0.0000 </r>
       <r>    1.9685    0.0000 </r>
       <r>    3.0739    0.0000 </r>
      </set>
      <set comment="kpoint 21">
       <r>  -15.6837    1.0000 </r>
       <r>  -13.3136    1.0000 </r>
       <r>  -12.8706    1.0000 </r>
       <r>  -10.0212    1.0000 </r>
       <r>   -7.8287    1.0000 </r>
       <r>   -7.1223    1.0000 </r>
       <r>   -5.4930    1.0000 </r>
       <r>   -5.2890    1.0000 </r>
       <r>   -4.2769    1.0000 </r>
       <r>   -3.4017    1.0000 </r>
       <r>   -0.9359    0.0000 </r>
       <r>   -0.5718    0.0000 </r>
       <r>   -0.2418    0.0000 </r>
       <r>    0.3222    0.0000 </r>
       <r>    1.5269    0.0000 </r>
       <r>    2.7191    0.0000 </r>
      </set>
      <set comment="kpoint 22">
       <r>  -15.2937    1.0000 </r>
       <r>  -13.4979    1.0000 </r>
       <r>  -12.7298    1.0000 </r>
       <r>  -10.6390    1.0000 </r>
       <r>   -7.6962    1.0000 </r>
       <r>   -7.0873    1.0000 </r>
       <r>   -5.3062    1.0000 </r>
       <r>   -5.2222    1.0000 </r>
       <r>   -4.3207    1.0000 </r>
       <r>   -3.6800    1.0000 </r>
       <r>   -0.8533    0.0000 </r>
       <r>   -0.8293    0.0000 </r>
       <r>   -0.5321    0.0000 </r>
       <r>    0.5223    0.0000 </r>
       <r>    1.1245    0.0000 </r>
       <r>    2.3037    0.0000 </r>
      </set>
      <set comment="kpoint 23">
       <r>  -14.8695    1.0000 </r>
       <r>  -13.9511    1.0000 </r>
       <r>  -12.2869    1.0000 </r>
       <r>  -11.2283    1.0000 </r>
       <r>   -7.5093    1.0000 </r>
       <r>   -7.1548    1.0000 </r>
       <r>   -5.1837    1.0000 </r>
       <r>   -5.1756    1.0000 </r>
       <r>   -4.2587    1.0000 </r>
       <r>   -3.9305    1.0000 </r>
       <r>   -1.0675    0.0000 </r>
       <r>   -1.0271    0.0000 </r>
       <r>   -0.2968    0.0000 </r>
       <r>    0.4492    0.0000 </r>
       <r>    1.0992    0.0000 </r>
       <r>    1.8701    0.0000 </r>
      </set>
      <set comment="kpoint 24">
       <r>  -14.4180    1.0000 </r>
       <r>  -14.4180    1.0000 </r>
       <r>  -11.7801    1.0000 </r>
       <r>  -11.7801    1.0000 </r>
       <r>   -7.3116    1.0000 </r>
       <r>   -7.3116    1.0000 </r>
       <r>   -5.1481    1.0000 </r>
       <r>   -5.1481    1.0000 </r>
       <r>   -4.1253    1.0000 </r>
       <r>   -4.1253    1.0000 </r>
       <r>   -1.1336    0.0000 </r>
       <r>   -1.1336    0.0000 </r>
       <r>    0.0725    0.0000 </r>
       <r>    0.0725    0.0000 </r>
       <r>    1.4504    0.0000 </r>
       <r>    1.4504    0.0000 </r>
      </set>
      <set comment="kpoint 25">
       <r>  -14.8695    1.0000 </r>
       <r>  -13.9511    1.0000 </r>
       <r>  -12.2869    1.0000 </r>
       <r>  -11.2283    1.0000 </r>
       <r>   -7.5093    1.0000 </r>
       <r>   -7.1548    1.0000 </r>
       <r>   -5.1837    1.0000 </r>
       <r>   -5.1756    1.0000 </r>
       <r>   -4.2587    1.0000 </r>
       <r>   -3.9305    1.0000 </r>
       <r>   -1.0675    0.0000 </r>
       <r>   -1.0271    0.0000 </r>
       <r>   -0.2968    0.0000 </r>
       <r>    0.4492    0.0000 </r>
       <r>    1.0992    0.0000 </r>
       <r>    1.8701    0.0000 </r>
      </set>
      <set comment="kpoint 26">
       <r>  -15.2937    1.0000 </r>
       <r>  -13.4979    1.0000 </r>
       <r>  -12.7298    1.0000 </r>
       <r>  -10.6390    1.0000 </r>
       <r>   -7.6962    1.0000 </r>
       <r>   -7.0873    1.0000 </r>
       <r>   -5.3062    1.0000 </r>
       <r>   -5.2222    1.0000 </r>
       <r>   -4.3207    1.0000 </r>
       <r>   -3.6800    1.0000 </r>
       <r>   -0.8533    0.0000 </r>
       <r>   -0.8293    0.0000 </r>
       <r>   -0.5321    0.0000 </r>
       <r>    0.5223    0.0000 </r>
       <r>    1.1245    0.0000 </r>
       <r>    2.3037    0.0000 </r>
      </set>
      <set comment="kpoint 27">
       <r>  -15.6837    1.0000 </r>
       <r>  -13.3136    1.0000 </r>
       <r>  -12.8706    1.0000 </r>
       <r>  -10.0212    1.0000 </r>
       <r>   -7.8287    1.0000 </r>
       <r>   -7.1223    1.0000 </r>
       <r>   -5.4930    1.0000 </r>
       <r>   -5.2890    1.0000 </r>
       <r>   -4.2769    1.0000 </r>
       <r>   -3.4017    1.0000 </r>
       <r>   -0.9359    0.0000 </r>
       <r>   -0.5718    0.0000 </r>
       <r>   -0.2418    0.0000 </r>
       <r>    0.3222    0.0000 </r>
       <r>    1.5269    0.0000 </r>
       <r>    2.7191    0.0000 </r>
      </set>
      <set comment="kpoint 28">
       <r>  -16.0346    1.0000 </r>
       <r>  -13.6173    1.0000 </r>
       <r>  -12.5143    1.0000 </r>
       <r>   -9.3899    1.0000 </r>
       <r>   -7.8684    1.0000 </r>
       <r>   -7.2274    1.0000 </r>
       <r>   -5.7084    1.0000 </r>
       <r>   -5.3852    1.0000 </r>
       <r>   -4.1355    1.0000 </r>
       <r>   -3.1319    1.0000 </r>
       <r>   -1.0518    0.0000 </r>
       <r>   -0.4414    0.0000 </r>
       <r>    0.2742    0.0000 </r>
       <r>    0.3578    0.0000 </r>
       <r>    1.9685    0.0000 </r>
       <r>    3.0739    0.0000 </r>
      </set>
      <set comment="kpoint 29">
       <r>  -16.3434    1.0000 </r>
       <r>  -13.9334    1.0000 </r>
       <r>  -12.1645    1.0000 </r>
       <r>   -8.7764    1.0000 </r>
       <r>   -7.7826    1.0000 </r>
       <r>   -7.3503    1.0000 </r>
       <r>   -5.9241    1.0000 </r>
       <r>   -5.4763    1.0000 </r>
       <r>   -3.9703    1.0000 </r>
       <r>   -2.9006    1.0000 </r>
       <r>   -1.0276    0.0000 </r>
       <r>   -0.5676    0.0000 </r>
       <r>    0.7489    0.0000 </r>
       <r>    0.8662    0.0000 </r>
       <r>    2.3893    0.0000 </r>
       <r>    3.2045    0.0000 </r>
      </set>
      <set comment="kpoint 30">
       <r>  -16.6076    1.0000 </r>
       <r>  -14.2081    1.0000 </r>
       <r>  -11.8963    1.0000 </r>
       <r>   -8.2609    1.0000 </r>
       <r>   -7.5536    1.0000 </r>
       <r>   -7.4190    1.0000 </r>
       <r>   -6.1206    1.0000 </r>
       <r>   -5.5040    1.0000 </r>
       <r>   -3.8511    1.0000 </r>
       <r>   -2.7254    1.0000 </r>
       <r>   -0.8336    0.0000 </r>
       <r>   -0.7481    0.0000 </r>
       <r>    1.2760    0.0000 </r>
       <r>    1.4750    0.0000 </r>
       <r>    2.6334    0.0000 </r>
       <r>    2.9589    0.0000 </r>
      </set>
      <set comment="kpoint 31">
       <r>  -16.8256    1.0000 </r>
       <r>  -14.4354    1.0000 </r>
       <r>  -11.7184    1.0000 </r>
       <r>   -8.0161    1.0000 </r>
       <r>   -7.3111    1.0000 </r>
       <r>   -7.1957    1.0000 </r>
       <r>   -6.2802    1.0000 </r>
       <r>   -5.3950    1.0000 </r>
       <r>   -3.7992    1.0000 </r>
       <r>   -2.6099    1.0000 </r>
       <r>   -0.9089    0.0000 </r>
       <r>   -0.4864    0.0000 </r>
       <r>    1.7869    0.0000 </r>
       <r>    1.9343    0.0000 </r>
       <r>    2.1030    0.0000 </r>
       <r>    2.5889    0.0000 </r>
      </set>
      <set comment="kpoint 32">
       <r>  -16.9962    1.0000 </r>
       <r>  -14.6131    1.0000 </r>
       <r>  -11.6157    1.0000 </r>
       <r>   -8.0156    1.0000 </r>
       <r>   -7.1132    1.0000 </r>
       <r>   -6.7937    1.0000 </r>
       <r>   -6.3525    1.0000 </r>
       <r>   -5.0930    1.0000 </r>
       <r>   -3.7960    1.0000 </r>
       <r>   -2.5460    1.0000 </r>
       <r>   -1.0353    0.0000 </r>
       <r>   -0.0426    0.0000 </r>
       <r>    1.0402    0.0000 </r>
       <r>    1.7388    0.0000 </r>
       <r>    2.3049    0.0000 </r>
       <r>    2.5654    0.0000 </r>
      </set>
      <set comment="kpoint 33">
       <r>  -17.1186    1.0000 </r>
       <r>  -14.7406    1.0000 </r>
       <r>  -11.5638    1.0000 </r>
       <r>   -8.0675    1.0000 </r>
       <r>   -7.0001    1.0000 </r>
       <r>   -6.6483    1.0000 </r>
       <r>   -6.1065    1.0000 </r>
       <r>   -4.6523    1.0000 </r>
       <r>   -3.8142    1.0000 </r>
       <r>   -2.5206    1.0000 </r>
       <r>   -1.1250    0.0000 </r>
       <r>    0.1932    0.0000 </r>
       <r>    0.4155    0.0000 </r>
       <r>    1.1064    0.0000 </r>
       <r>    2.2507    0.0000 </r>
       <r>    2.4315    0.0000 </r>
      </set>
      <set comment="kpoint 34">
       <r>  -17.1923    1.0000 </r>
       <r>  -14.8172    1.0000 </r>
       <r>  -11.5415    1.0000 </r>
       <r>   -8.1086    1.0000 </r>
       <r>   -6.9583    1.0000 </r>
       <r>   -6.6733    1.0000 </r>
       <r>   -5.7406    1.0000 </r>
       <r>   -4.2404    1.0000 </r>
       <r>   -3.8339    1.0000 </r>
       <r>   -2.5191    1.0000 </r>
       <r>   -1.1797    0.0000 </r>
       <r>   -0.4101    0.0000 </r>
       <r>    0.5268    0.0000 </r>
       <r>    0.8097    0.0000 </r>
       <r>    2.1812    0.0000 </r>
       <r>    2.3496    0.0000 </r>
      </set>
      <set comment="kpoint 35">
       <r>  -17.1547    1.0000 </r>
       <r>  -14.9361    1.0000 </r>
       <r>  -11.5327    1.0000 </r>
       <r>   -8.4825    1.0000 </r>
       <r>   -6.7313    1.0000 </r>
       <r>   -6.4374    1.0000 </r>
       <r>   -5.5372    1.0000 </r>
       <r>   -4.1112    1.0000 </r>
       <r>   -3.6107    1.0000 </r>
       <r>   -2.9136    1.0000 </r>
       <r>   -0.8425    0.0000 </r>
       <r>   -0.5855    0.0000 </r>
       <r>    0.1789    0.0000 </r>
       <r>    0.9291    0.0000 </r>
       <r>    2.3200    0.0000 </r>
       <r>    2.4099    0.0000 </r>
      </set>
      <set comment="kpoint 36">
       <r>  -17.1301    1.0000 </r>
       <r>  -14.9109    1.0000 </r>
       <r>  -11.5359    1.0000 </r>
       <r>   -8.4708    1.0000 </r>
       <r>   -6.7337    1.0000 </r>
       <r>   -6.4486    1.0000 </r>
       <r>   -5.6685    1.0000 </r>
       <r>   -4.2961    1.0000 </r>
       <r>   -3.6071    1.0000 </r>
       <r>   -2.9062    1.0000 </r>
       <r>   -0.8281    0.0000 </r>
       <r>   -0.3620    0.0000 </r>
       <r>    0.3892    0.0000 </r>
       <r>    0.8081    0.0000 </r>
       <r>    2.3414    0.0000 </r>
       <r>    2.4371    0.0000 </r>
      </set>
      <set comment="kpoint 37">
       <r>  -17.0566    1.0000 </r>
       <r>  -14.8356    1.0000 </r>
       <r>  -11.5495    1.0000 </r>
       <r>   -8.4398    1.0000 </r>
       <r>   -6.7533    1.0000 </r>
       <r>   -6.5474    1.0000 </r>
       <r>   -5.9164    1.0000 </r>
       <r>   -4.7284    1.0000 </r>
       <r>   -3.6075    1.0000 </r>
       <r>   -2.8929    1.0000 </r>
       <r>   -0.7892    0.0000 </r>
       <r>    0.2384    0.0000 </r>
       <r>    0.3982    0.0000 </r>
       <r>    1.0274    0.0000 </r>
       <r>    2.4017    0.0000 </r>
       <r>    2.5185    0.0000 </r>
      </set>
      <set comment="kpoint 38">
       <r>  -16.9345    1.0000 </r>
       <r>  -14.7106    1.0000 </r>
       <r>  -11.5866    1.0000 </r>
       <r>   -8.4060    1.0000 </r>
       <r>   -6.8725    1.0000 </r>
       <r>   -6.8326    1.0000 </r>
       <r>   -5.9972    1.0000 </r>
       <r>   -5.1906    1.0000 </r>
       <r>   -3.6279    1.0000 </r>
       <r>   -2.8882    1.0000 </r>
       <r>   -0.7265    0.0000 </r>
       <r>    0.0012    0.0000 </r>
       <r>    1.0686    0.0000 </r>
       <r>    1.6877    0.0000 </r>
       <r>    2.1495    0.0000 </r>
       <r>    2.5109    0.0000 </r>
      </set>
      <set comment="kpoint 39">
       <r>  -16.7643    1.0000 </r>
       <r>  -14.5370    1.0000 </r>
       <r>  -11.6684    1.0000 </r>
       <r>   -8.4153    1.0000 </r>
       <r>   -7.2981    1.0000 </r>
       <r>   -7.0198    1.0000 </r>
       <r>   -5.9254    1.0000 </r>
       <r>   -5.4980    1.0000 </r>
       <r>   -3.6890    1.0000 </r>
       <r>   -2.9068    1.0000 </r>
       <r>   -0.6395    0.0000 </r>
       <r>   -0.3711    0.0000 </r>
       <r>    1.4506    0.0000 </r>
       <r>    2.0400    0.0000 </r>
       <r>    2.1750    0.0000 </r>
       <r>    2.6250    0.0000 </r>
      </set>
      <set comment="kpoint 40">
       <r>  -16.5470    1.0000 </r>
       <r>  -14.3165    1.0000 </r>
       <r>  -11.8206    1.0000 </r>
       <r>   -8.5725    1.0000 </r>
       <r>   -7.6631    1.0000 </r>
       <r>   -7.2300    1.0000 </r>
       <r>   -5.7923    1.0000 </r>
       <r>   -5.5971    1.0000 </r>
       <r>   -3.8102    1.0000 </r>
       <r>   -2.9645    1.0000 </r>
       <r>   -0.6342    0.0000 </r>
       <r>   -0.5289    0.0000 </r>
       <r>    0.9222    0.0000 </r>
       <r>    1.7031    0.0000 </r>
       <r>    2.6924    0.0000 </r>
       <r>    3.0538    0.0000 </r>
      </set>
      <set comment="kpoint 41">
       <r>  -16.2838    1.0000 </r>
       <r>  -14.0539    1.0000 </r>
       <r>  -12.0597    1.0000 </r>
       <r>   -8.9634    1.0000 </r>
       <r>   -7.8981    1.0000 </r>
       <r>   -7.2943    1.0000 </r>
       <r>   -5.6327    1.0000 </r>
       <r>   -5.5739    1.0000 </r>
       <r>   -3.9842    1.0000 </r>
       <r>   -3.0735    1.0000 </r>
       <r>   -0.7486    0.0000 </r>
       <r>   -0.4058    0.0000 </r>
       <r>    0.4119    0.0000 </r>
[...]
       <r>    3.3072    0.0000 </r>
       <r>    3.3577    0.0000 </r>
      </set>
      <set comment="kpoint 161">
       <r>  -15.4571    1.0000 </r>
       <r>  -15.2130    1.0000 </r>
       <r>  -10.8840    1.0000 </r>
       <r>  -10.5619    1.0000 </r>
       <r>   -7.8828    1.0000 </r>
       <r>   -7.7296    1.0000 </r>
       <r>   -5.2270    1.0000 </r>
       <r>   -4.9949    1.0000 </r>
       <r>   -3.8605    1.0000 </r>
       <r>   -3.8120    1.0000 </r>
       <r>    0.1956    0.0000 </r>
       <r>    0.5461    0.0000 </r>
       <r>    1.1109    0.0000 </r>
       <r>    1.4115    0.0000 </r>
       <r>    3.2266    0.0000 </r>
       <r>    3.3328    0.0000 </r>
      </set>
      <set comment="kpoint 162">
       <r>  -15.7060    1.0000 </r>
       <r>  -15.4582    1.0000 </r>
       <r>  -10.7644    1.0000 </r>
       <r>  -10.4375    1.0000 </r>
       <r>   -7.5252    1.0000 </r>
       <r>   -7.3664    1.0000 </r>
       <r>   -5.1485    1.0000 </r>
       <r>   -4.8629    1.0000 </r>
       <r>   -3.7960    1.0000 </r>
       <r>   -3.7247    1.0000 </r>
       <r>    0.2475    0.0000 </r>
       <r>    0.5049    0.0000 </r>
       <r>    1.1935    0.0000 </r>
       <r>    1.5297    0.0000 </r>
       <r>    2.8781    0.0000 </r>
       <r>    3.1594    0.0000 </r>
      </set>
      <set comment="kpoint 163">
       <r>  -15.9143    1.0000 </r>
       <r>  -15.6643    1.0000 </r>
       <r>  -10.7393    1.0000 </r>
       <r>  -10.4157    1.0000 </r>
       <r>   -7.0034    1.0000 </r>
       <r>   -6.8334    1.0000 </r>
       <r>   -5.1782    1.0000 </r>
       <r>   -4.8583    1.0000 </r>
       <r>   -3.7234    1.0000 </r>
       <r>   -3.5331    1.0000 </r>
       <r>    0.3868    0.0000 </r>
       <r>    0.5327    0.0000 </r>
       <r>    1.1895    0.0000 </r>
       <r>    1.5500    0.0000 </r>
       <r>    2.2658    0.0000 </r>
       <r>    2.4984    0.0000 </r>
      </set>
      <set comment="kpoint 164">
       <r>  -16.0786    1.0000 </r>
       <r>  -15.8274    1.0000 </r>
       <r>  -10.7622    1.0000 </r>
       <r>  -10.4437    1.0000 </r>
       <r>   -6.3857    1.0000 </r>
       <r>   -6.2051    1.0000 </r>
       <r>   -5.2433    1.0000 </r>
       <r>   -4.9091    1.0000 </r>
       <r>   -3.6747    1.0000 </r>
       <r>   -3.3801    1.0000 </r>
       <r>    0.5398    0.0000 </r>
       <r>    0.5759    0.0000 </r>
       <r>    1.1111    0.0000 </r>
       <r>    1.4123    0.0000 </r>
       <r>    1.6974    0.0000 </r>
       <r>    1.7985    0.0000 </r>
      </set>
      <set comment="kpoint 165">
       <r>  -16.1971    1.0000 </r>
       <r>  -15.9453    1.0000 </r>
       <r>  -10.7978    1.0000 </r>
       <r>  -10.4834    1.0000 </r>
       <r>   -5.7450    1.0000 </r>
       <r>   -5.5676    1.0000 </r>
       <r>   -5.2972    1.0000 </r>
       <r>   -4.9658    1.0000 </r>
       <r>   -3.7022    1.0000 </r>
       <r>   -3.3207    1.0000 </r>
       <r>    0.3609    0.0000 </r>
       <r>    0.3750    0.0000 </r>
       <r>    1.0962    0.0000 </r>
       <r>    1.1713    0.0000 </r>
       <r>    1.4633    0.0000 </r>
       <r>    1.5623    0.0000 </r>
      </set>
      <set comment="kpoint 166">
       <r>  -16.2686    1.0000 </r>
       <r>  -16.0165    1.0000 </r>
       <r>  -10.8258    1.0000 </r>
       <r>  -10.5138    1.0000 </r>
       <r>   -5.3630    1.0000 </r>
       <r>   -5.1828    1.0000 </r>
       <r>   -5.0055    1.0000 </r>
       <r>   -4.9910    1.0000 </r>
       <r>   -3.8186    1.0000 </r>
       <r>   -3.3659    1.0000 </r>
       <r>   -0.0568    0.0000 </r>
       <r>   -0.0239    0.0000 </r>
       <r>    1.1577    0.0000 </r>
       <r>    1.2297    0.0000 </r>
       <r>    1.4678    0.0000 </r>
       <r>    1.5112    0.0000 </r>
      </set>
     </set>
    </set>
   </array>
  </eigenvalues>
  <separator name="orbital magnetization" >
   <v name="MAGDIPOLOUT">      0.00000000      0.00000000      0.00000000</v>
  </separator>
  <dos>
   <i name="efermi">     -2.20333331 </i>
   <total>
    <array>
     <dimension dim="1">gridpoints</dimension>
     <dimension dim="2">spin</dimension>
     <field>energy</field>
     <field>total</field>
     <field>integrated</field>
     <set>
      <set comment="spin 1">
       <r>   -18.2758     0.0000     0.0000 </r>
       <r>   -18.1997     0.0000     0.0000 </r>
       <r>   -18.1236     0.0000     0.0000 </r>
       <r>   -18.0475     0.0000     0.0000 </r>
       <r>   -17.9713     0.0000     0.0000 </r>
       <r>   -17.8952     0.0000     0.0000 </r>
       <r>   -17.8191     0.0000     0.0000 </r>
       <r>   -17.7429     0.0000     0.0000 </r>
       <r>   -17.6668     0.0000     0.0000 </r>
       <r>   -17.5907     0.0000     0.0000 </r>
       <r>   -17.5146     0.0000     0.0000 </r>
       <r>   -17.4384     0.0000     0.0000 </r>
       <r>   -17.3623     0.0000     0.0000 </r>
       <r>   -17.2862     0.0000     0.0000 </r>
       <r>   -17.2100     0.3134     0.0239 </r>
       <r>   -17.1339     0.8245     0.0866 </r>
       <r>   -17.0578     0.7430     0.1432 </r>
       <r>   -16.9817     1.0238     0.2211 </r>
       <r>   -16.9055     0.8051     0.2824 </r>
       <r>   -16.8294     0.8487     0.3470 </r>
       <r>   -16.7533     0.8804     0.4141 </r>
       <r>   -16.6772     0.8585     0.4794 </r>
       <r>   -16.6010     0.9976     0.5554 </r>
       <r>   -16.5249     0.7667     0.6137 </r>
       <r>   -16.4488     0.9507     0.6861 </r>
       <r>   -16.3726     0.5268     0.7262 </r>
       <r>   -16.2965     1.3925     0.8322 </r>
       <r>   -16.2204     0.7889     0.8923 </r>
       <r>   -16.1443     0.8913     0.9601 </r>
       <r>   -16.0681     0.6767     1.0116 </r>
       <r>   -15.9920     1.3099     1.1114 </r>
       <r>   -15.9159     1.0404     1.1906 </r>
       <r>   -15.8397     0.9006     1.2591 </r>
       <r>   -15.7636     0.5415     1.3003 </r>
       <r>   -15.6875     1.3268     1.4014 </r>
       <r>   -15.6114     1.2268     1.4948 </r>
       <r>   -15.5352     0.8636     1.5605 </r>
       <r>   -15.4591     0.8953     1.6287 </r>
       <r>   -15.3830     1.4954     1.7425 </r>
       <r>   -15.3069     0.4815     1.7791 </r>
       <r>   -15.2307     1.4944     1.8929 </r>
       <r>   -15.1546     1.5623     2.0119 </r>
       <r>   -15.0785     0.7465     2.0687 </r>
       <r>   -15.0023     1.1427     2.1557 </r>
       <r>   -14.9262     1.2948     2.2542 </r>
       <r>   -14.8501     2.1410     2.4172 </r>
       <r>   -14.7740     1.3473     2.5198 </r>
       <r>   -14.6978     1.9535     2.6685 </r>
       <r>   -14.6217     1.4590     2.7796 </r>
       <r>   -14.5456     0.7317     2.8353 </r>
       <r>   -14.4694     0.9854     2.9103 </r>
       <r>   -14.3933     2.0829     3.0689 </r>
       <r>   -14.3172     1.1803     3.1587 </r>
       <r>   -14.2411     0.9393     3.2302 </r>
       <r>   -14.1649     1.7268     3.3617 </r>
       <r>   -14.0888     1.1842     3.4518 </r>
       <r>   -14.0127     0.6785     3.5035 </r>
       <r>   -13.9365     2.3199     3.6801 </r>
       <r>   -13.8604     0.8564     3.7453 </r>
       <r>   -13.7843     0.3399     3.7712 </r>
       <r>   -13.7082     0.5708     3.8146 </r>
       <r>   -13.6320     0.4123     3.8460 </r>
       <r>   -13.5559     0.6367     3.8945 </r>
       <r>   -13.4798     0.7617     3.9525 </r>
       <r>   -13.4037     0.1468     3.9636 </r>
       <r>   -13.3275     0.0515     3.9676 </r>
       <r>   -13.2514     0.2669     3.9879 </r>
       <r>   -13.1753     0.1101     3.9963 </r>
       <r>   -13.0991     0.0491     4.0000 </r>
       <r>   -13.0230     0.0115     4.0009 </r>
       <r>   -12.9469     0.1477     4.0121 </r>
       <r>   -12.8708     0.1581     4.0242 </r>
       <r>   -12.7946     0.1609     4.0364 </r>
       <r>   -12.7185     0.4092     4.0676 </r>
       <r>   -12.6424     0.6394     4.1162 </r>
       <r>   -12.5662     0.1697     4.1291 </r>
       <r>   -12.4901     0.6810     4.1810 </r>
       <r>   -12.4140     0.3553     4.2080 </r>
       <r>   -12.3379     0.6096     4.2544 </r>
       <r>   -12.2617     1.4777     4.3669 </r>
       <r>   -12.1856     1.2886     4.4650 </r>
       <r>   -12.1095     1.0658     4.5462 </r>
       <r>   -12.0334     1.0962     4.6296 </r>
       <r>   -11.9572     0.9814     4.7043 </r>
       <r>   -11.8811     1.5905     4.8254 </r>
       <r>   -11.8050     1.0781     4.9075 </r>
       <r>   -11.7288     1.3037     5.0067 </r>
       <r>   -11.6527     1.7203     5.1377 </r>
       <r>   -11.5766     1.5989     5.2594 </r>
       <r>   -11.5005     3.2992     5.5106 </r>
       <r>   -11.4243     2.0152     5.6640 </r>
       <r>   -11.3482     1.5810     5.7844 </r>
       <r>   -11.2721     1.1706     5.8735 </r>
       <r>   -11.1959     1.5576     5.9920 </r>
       <r>   -11.1198     1.0359     6.0709 </r>
       <r>   -11.0437     1.2132     6.1633 </r>
       <r>   -10.9676     0.8449     6.2276 </r>
       <r>   -10.8914     0.5238     6.2675 </r>
       <r>   -10.8153     1.0705     6.3490 </r>
       <r>   -10.7392     1.3632     6.4527 </r>
       <r>   -10.6630     0.7190     6.5075 </r>
       <r>   -10.5869     0.5876     6.5522 </r>
       <r>   -10.5108     0.8403     6.6162 </r>
       <r>   -10.4347     1.2420     6.7107 </r>
       <r>   -10.3585     0.6152     6.7576 </r>
       <r>   -10.2824     0.0040     6.7579 </r>
       <r>   -10.2063     0.8476     6.8224 </r>
       <r>   -10.1302     0.6930     6.8752 </r>
       <r>   -10.0540     1.3218     6.9758 </r>
       <r>    -9.9779     0.6111     7.0223 </r>
       <r>    -9.9018     0.3632     7.0500 </r>
       <r>    -9.8256     0.2991     7.0727 </r>
       <r>    -9.7495     0.3941     7.1027 </r>
       <r>    -9.6734     1.3788     7.2077 </r>
       <r>    -9.5973     0.2970     7.2303 </r>
       <r>    -9.5211     0.3688     7.2584 </r>
       <r>    -9.4450     0.2681     7.2788 </r>
       <r>    -9.3689     0.3167     7.3029 </r>
       <r>    -9.2927     1.2037     7.3945 </r>
       <r>    -9.2166     0.9691     7.4683 </r>
       <r>    -9.1405     0.0581     7.4727 </r>
       <r>    -9.0644     0.0000     7.4727 </r>
       <r>    -8.9882     0.0126     7.4737 </r>
       <r>    -8.9121     0.7041     7.5273 </r>
       <r>    -8.8360     0.9804     7.6019 </r>
       <r>    -8.7598     0.6529     7.6516 </r>
       <r>    -8.6837     0.1900     7.6661 </r>
       <r>    -8.6076     0.0096     7.6668 </r>
       <r>    -8.5315     0.3158     7.6909 </r>
       <r>    -8.4553     0.4741     7.7270 </r>
       <r>    -8.3792     0.9484     7.7992 </r>
       <r>    -8.3031     0.0114     7.8000 </r>
       <r>    -8.2270     0.3178     7.8242 </r>
       <r>    -8.1508     0.9227     7.8945 </r>
       <r>    -8.0747     2.1602     8.0589 </r>
       <r>    -7.9986     2.4687     8.2469 </r>
       <r>    -7.9224     2.1403     8.4098 </r>
       <r>    -7.8463     1.9690     8.5597 </r>
       <r>    -7.7702     2.1614     8.7242 </r>
       <r>    -7.6941     2.2372     8.8945 </r>
       <r>    -7.6179     2.4638     9.0821 </r>
       <r>    -7.5418     1.2479     9.1771 </r>
       <r>    -7.4657     1.7080     9.3071 </r>
       <r>    -7.3895     2.2049     9.4750 </r>
       <r>    -7.3134     3.1354     9.7137 </r>
       <r>    -7.2373     3.7535     9.9994 </r>
       <r>    -7.1612     3.6651    10.2784 </r>
       <r>    -7.0850     3.2752    10.5278 </r>
       <r>    -7.0089     1.6492    10.6533 </r>
       <r>    -6.9328     1.0189    10.7309 </r>
       <r>    -6.8567     0.6292    10.7788 </r>
       <r>    -6.7805     1.6435    10.9039 </r>
       <r>    -6.7044     1.5604    11.0227 </r>
       <r>    -6.6283     2.0806    11.1811 </r>
       <r>    -6.5521     1.7316    11.3129 </r>
       <r>    -6.4760     1.6180    11.4361 </r>
       <r>    -6.3999     1.2196    11.5289 </r>
       <r>    -6.3238     1.3681    11.6331 </r>
       <r>    -6.2476     1.8228    11.7719 </r>
       <r>    -6.1715     1.7442    11.9046 </r>
       <r>    -6.0954     1.5559    12.0231 </r>
       <r>    -6.0192     1.6260    12.1469 </r>
       <r>    -5.9431     2.3868    12.3286 </r>
       <r>    -5.8670     1.6803    12.4565 </r>
       <r>    -5.7909     1.4753    12.5688 </r>
       <r>    -5.7147     2.5289    12.7613 </r>
       <r>    -5.6386     4.1941    13.0806 </r>
       <r>    -5.5625     3.9606    13.3821 </r>
       <r>    -5.4863     3.9277    13.6811 </r>
       <r>    -5.4102     3.6345    13.9578 </r>
       <r>    -5.3341     2.8339    14.1735 </r>
       <r>    -5.2580     3.8043    14.4631 </r>
       <r>    -5.1818     3.1391    14.7021 </r>
       <r>    -5.1057     2.4602    14.8894 </r>
       <r>    -5.0296     1.5693    15.0089 </r>
       <r>    -4.9535     2.9544    15.2338 </r>
       <r>    -4.8773     1.1435    15.3208 </r>
       <r>    -4.8012     1.6095    15.4434 </r>
       <r>    -4.7251     0.8824    15.5105 </r>
       <r>    -4.6489     0.8170    15.5727 </r>
       <r>    -4.5728     2.2993    15.7478 </r>
       <r>    -4.4967     1.1966    15.8389 </r>
       <r>    -4.4206     0.4313    15.8717 </r>
       <r>    -4.3444     0.7139    15.9261 </r>
       <r>    -4.2683     1.5251    16.0422 </r>
       <r>    -4.1922     2.1311    16.2044 </r>
       <r>    -4.1160     3.0964    16.4401 </r>
       <r>    -4.0399     2.0426    16.5956 </r>
       <r>    -3.9638     3.1084    16.8322 </r>
       <r>    -3.8877     2.7897    17.0446 </r>
       <r>    -3.8115     3.4734    17.3090 </r>
       <r>    -3.7354     4.5919    17.6586 </r>
       <r>    -3.6593     4.0922    17.9701 </r>
       <r>    -3.5832     3.0785    18.2045 </r>
       <r>    -3.5070     2.2046    18.3723 </r>
       <r>    -3.4309     3.1999    18.6159 </r>
       <r>    -3.3548     4.9875    18.9956 </r>
       <r>    -3.2786     3.5433    19.2654 </r>
       <r>    -3.2025     1.3115    19.3652 </r>
       <r>    -3.1264     0.6710    19.4163 </r>
       <r>    -3.0503     1.4358    19.5256 </r>
       <r>    -2.9741     0.9768    19.6000 </r>
       <r>    -2.8980     1.6708    19.7272 </r>
       <r>    -2.8219     0.9312    19.7980 </r>
       <r>    -2.7457     0.0495    19.8018 </r>
       <r>    -2.6696     0.2951    19.8243 </r>
       <r>    -2.5935     0.4373    19.8576 </r>
       <r>    -2.5174     0.8208    19.9201 </r>
       <r>    -2.4412     0.4927    19.9576 </r>
       <r>    -2.3651     0.1645    19.9701 </r>
       <r>    -2.2890     0.3921    19.9999 </r>
       <r>    -2.2128     0.0007    20.0000 </r>
       <r>    -2.1367     0.0000    20.0000 </r>
       <r>    -2.0606     0.0000    20.0000 </r>
       <r>    -1.9845     0.0000    20.0000 </r>
       <r>    -1.9083     0.0000    20.0000 </r>
       <r>    -1.8322     0.0000    20.0000 </r>
       <r>    -1.7561     0.0000    20.0000 </r>
       <r>    -1.6800     0.0000    20.0000 </r>
       <r>    -1.6038     0.0000    20.0000 </r>
       <r>    -1.5277     0.0000    20.0000 </r>
       <r>    -1.4516     0.0000    20.0000 </r>
       <r>    -1.3754     0.0704    20.0054 </r>
       <r>    -1.2993     0.2090    20.0213 </r>
       <r>    -1.2232     0.1261    20.0309 </r>
       <r>    -1.1471     0.8714    20.0972 </r>
       <r>    -1.0709     1.7056    20.2270 </r>
       <r>    -0.9948     2.3525    20.4061 </r>
       <r>    -0.9187     1.5292    20.5226 </r>
       <r>    -0.8425     1.2616    20.6186 </r>
       <r>    -0.7664     2.2388    20.7890 </r>
       <r>    -0.6903     1.9770    20.9395 </r>
       <r>    -0.6142     2.0024    21.0920 </r>
       <r>    -0.5380     2.0215    21.2459 </r>
       <r>    -0.4619     2.1977    21.4132 </r>
       <r>    -0.3858     3.1222    21.6509 </r>
       <r>    -0.3097     2.2267    21.8204 </r>
       <r>    -0.2335     2.8827    22.0398 </r>
       <r>    -0.1574     2.6764    22.2436 </r>
       <r>    -0.0813     2.9143    22.4654 </r>
       <r>    -0.0051     2.5249    22.6576 </r>
       <r>     0.0710     2.9891    22.8852 </r>
       <r>     0.1471     3.7740    23.1725 </r>
       <r>     0.2232     4.2091    23.4929 </r>
       <r>     0.2994     2.5428    23.6865 </r>
       <r>     0.3755     4.1808    24.0048 </r>
       <r>     0.4516     6.6229    24.5090 </r>
       <r>     0.5278     3.0698    24.7427 </r>
       <r>     0.6039     5.5257    25.1633 </r>
       <r>     0.6800     2.3798    25.3445 </r>
       <r>     0.7561     2.0953    25.5040 </r>
       <r>     0.8323     5.1512    25.8962 </r>
       <r>     0.9084     3.5533    26.1667 </r>
       <r>     0.9845     2.4855    26.3559 </r>
       <r>     1.0607     2.5213    26.5478 </r>
       <r>     1.1368     4.0601    26.8569 </r>
       <r>     1.2129     2.4216    27.0413 </r>
       <r>     1.2890     2.2318    27.2112 </r>
       <r>     1.3652     1.7112    27.3414 </r>
       <r>     1.4413     2.0859    27.5002 </r>
       <r>     1.5174     3.4542    27.7632 </r>
       <r>     1.5935     1.6550    27.8892 </r>
       <r>     1.6697     1.8364    28.0290 </r>
       <r>     1.7458     1.8417    28.1692 </r>
       <r>     1.8219     3.6433    28.4466 </r>
       <r>     1.8981     2.2899    28.6209 </r>
       <r>     1.9742     1.3024    28.7200 </r>
       <r>     2.0503     2.7387    28.9285 </r>
       <r>     2.1264     2.2683    29.1012 </r>
       <r>     2.2026     2.6036    29.2994 </r>
       <r>     2.2787     2.1999    29.4669 </r>
       <r>     2.3548     3.2692    29.7158 </r>
       <r>     2.4310     2.8716    29.9344 </r>
       <r>     2.5071     1.9511    30.0829 </r>
       <r>     2.5832     3.1874    30.3256 </r>
       <r>     2.6593     4.4498    30.6643 </r>
       <r>     2.7355     2.1468    30.8277 </r>
       <r>     2.8116     2.1306    30.9899 </r>
       <r>     2.8877     1.2148    31.0824 </r>
       <r>     2.9638     3.0819    31.3170 </r>
       <r>     3.0400     1.1866    31.4074 </r>
       <r>     3.1161     1.4980    31.5214 </r>
       <r>     3.1922     1.6465    31.6468 </r>
       <r>     3.2684     1.8806    31.7899 </r>
       <r>     3.3445     1.3340    31.8915 </r>
       <r>     3.4206     0.7105    31.9456 </r>
       <r>     3.4967     0.4045    31.9764 </r>
       <r>     3.5729     0.3103    32.0000 </r>
       <r>     3.6490     0.0001    32.0000 </r>
       <r>     3.7251     0.0000    32.0000 </r>
       <r>     3.8013     0.0000    32.0000 </r>
       <r>     3.8774     0.0000    32.0000 </r>
       <r>     3.9535     0.0000    32.0000 </r>
       <r>     4.0296     0.0000    32.0000 </r>
       <r>     4.1058     0.0000    32.0000 </r>
       <r>     4.1819     0.0000    32.0000 </r>
       <r>     4.2580     0.0000    32.0000 </r>
       <r>     4.3342     0.0000    32.0000 </r>
       <r>     4.4103     0.0000    32.0000 </r>
       <r>     4.4864     0.0000    32.0000 </r>
       <r>     4.5625     0.0000    32.0000 </r>
      </set>
     </set>
    </array>
   </total>
  </dos>
 </calculation>
 <structure name="finalpos" >
  <crystal>
   <varray name="basis" >
    <v>       3.29720400       0.00000000       0.00000000 </v>
    <v>       0.00000000       4.66935600      -0.00005300 </v>
    <v>       0.00000000       0.00000000      20.02439000 </v>
   </varray>
   <i name="volume">    308.29188964 </i>
   <varray name="rec_basis" >
    <v>       0.30328727       0.00000000       0.00000000 </v>
    <v>       0.00000000       0.21416230       0.00000000 </v>
    <v>       0.00000000       0.00000057       0.04993910 </v>
   </varray>
  </crystal>
  <varray name="positions" >
   <v>       0.50000000       0.90931257       0.55234904 </v>
   <v>       0.50000000       0.09068743       0.44765096 </v>
   <v>      -0.00000000       0.40930794       0.44765097 </v>
   <v>       0.00000000       0.59069206       0.55234903 </v>
  </varray>
 </structure>
</modeling>
