<?xml version="1.0" encoding="ISO-8859-1"?>
<modeling>
 <generator>
  <i name="program" type="string">vasp </i>
  <i name="version" type="string">5.4.1  </i>
  <i name="subversion" type="string">24Jun15 (build Nov 20 2020 10:29:34) complex                          parallel </i>
  <i name="platform" type="string">IFC91_ompi </i>
  <i name="date" type="string">2021 09 09 </i>
  <i name="time" type="string">15:17:34 </i>
 </generator>
 <incar>
  <i type="string" name="PREC">a</i>
  <i type="string" name="ALGO"> Normal</i>
  <i type="int" name="ISPIN">     1</i>
  <i type="int" name="ICHARG">     2</i>
  <i type="int" name="NELM">   250</i>
  <i type="int" name="NELMDL">    -5</i>
  <i type="int" name="NELMIN">     6</i>
  <i type="int" name="IBRION">     2</i>
  <i name="EDIFF">      0.00001000</i>
  <i name="EDIFFG">     -0.01000000</i>
  <i type="int" name="NSW">   200</i>
  <i type="int" name="ISIF">     2</i>
  <i name="ENCUT">    520.00000000</i>
  <i name="POTIM">      0.30000000</i>
  <i type="logical" name="LREAL"> F  </i>
  <i type="int" name="ISMEAR">     0</i>
  <i name="SIGMA">      0.02000000</i>
  <i type="logical" name="LWAVE"> F  </i>
  <i type="logical" name="LCHARG"> F  </i>
  <i type="logical" name="LAECHG"> F  </i>
  <v type="int" name="KPOINT_BSE">    -1     0     0     0</v>
  <i type="int" name="NELM">   250</i>
 </incar>
 <kpoints>
  <generation param="Gamma">
   <v type="int" name="divisions">      21       15        1 </v>
   <v name="usershift">      0.00000000       0.00000000       0.00000000 </v>
   <v name="genvec1">      0.04761905       0.00000000       0.00000000 </v>
   <v name="genvec2">      0.00000000       0.06666667       0.00000000 </v>
   <v name="genvec3">      0.00000000      -0.00000000       1.00000000 </v>
   <v name="shift">      0.00000000       0.00000000       0.00000000 </v>
  </generation>
  <varray name="kpointlist" >
   <v>       0.00000000       0.00000000       0.00000000 </v>
   <v>       0.04761905       0.00000000       0.00000000 </v>
   <v>       0.09523810       0.00000000       0.00000000 </v>
   <v>       0.14285714       0.00000000       0.00000000 </v>
   <v>       0.19047619       0.00000000       0.00000000 </v>
   <v>       0.23809524       0.00000000       0.00000000 </v>
   <v>       0.28571429       0.00000000       0.00000000 </v>
   <v>       0.33333333       0.00000000       0.00000000 </v>
   <v>       0.38095238       0.00000000       0.00000000 </v>
   <v>       0.42857143       0.00000000       0.00000000 </v>
   <v>       0.47619048       0.00000000       0.00000000 </v>
   <v>       0.00000000       0.06666667       0.00000000 </v>
   <v>       0.04761905       0.06666667       0.00000000 </v>
   <v>       0.09523810       0.06666667       0.00000000 </v>
   <v>       0.14285714       0.06666667       0.00000000 </v>
   <v>       0.19047619       0.06666667       0.00000000 </v>
   <v>       0.23809524       0.06666667       0.00000000 </v>
   <v>       0.28571429       0.06666667       0.00000000 </v>
   <v>       0.33333333       0.06666667       0.00000000 </v>
   <v>       0.38095238       0.06666667       0.00000000 </v>
   <v>       0.42857143       0.06666667       0.00000000 </v>
   <v>       0.47619048       0.06666667       0.00000000 </v>
   <v>      -0.47619048       0.06666667       0.00000000 </v>
   <v>      -0.42857143       0.06666667       0.00000000 </v>
   <v>      -0.38095238       0.06666667       0.00000000 </v>
   <v>      -0.33333333       0.06666667       0.00000000 </v>
   <v>      -0.28571429       0.06666667       0.00000000 </v>
   <v>      -0.23809524       0.06666667       0.00000000 </v>
   <v>      -0.19047619       0.06666667       0.00000000 </v>
   <v>      -0.14285714       0.06666667       0.00000000 </v>
   <v>      -0.09523810       0.06666667       0.00000000 </v>
   <v>      -0.04761905       0.06666667       0.00000000 </v>
   <v>       0.00000000       0.13333333       0.00000000 </v>
   <v>       0.04761905       0.13333333       0.00000000 </v>
   <v>       0.09523810       0.13333333       0.00000000 </v>
   <v>       0.14285714       0.13333333       0.00000000 </v>
   <v>       0.19047619       0.13333333       0.00000000 </v>
   <v>       0.23809524       0.13333333       0.00000000 </v>
   <v>       0.28571429       0.13333333       0.00000000 </v>
   <v>       0.33333333       0.13333333       0.00000000 </v>
   <v>       0.38095238       0.13333333       0.00000000 </v>
   <v>       0.42857143       0.13333333       0.00000000 </v>
   <v>       0.47619048       0.13333333       0.00000000 </v>
   <v>      -0.47619048       0.13333333       0.00000000 </v>
   <v>      -0.42857143       0.13333333       0.00000000 </v>
   <v>      -0.38095238       0.13333333       0.00000000 </v>
   <v>      -0.33333333       0.13333333       0.00000000 </v>
   <v>      -0.28571429       0.13333333       0.00000000 </v>
   <v>      -0.23809524       0.13333333       0.00000000 </v>
   <v>      -0.19047619       0.13333333       0.00000000 </v>
   <v>      -0.14285714       0.13333333       0.00000000 </v>
   <v>      -0.09523810       0.13333333       0.00000000 </v>
   <v>      -0.04761905       0.13333333       0.00000000 </v>
   <v>       0.00000000       0.20000000       0.00000000 </v>
   <v>       0.04761905       0.20000000       0.00000000 </v>
   <v>       0.09523810       0.20000000       0.00000000 </v>
   <v>       0.14285714       0.20000000       0.00000000 </v>
   <v>       0.19047619       0.20000000       0.00000000 </v>
   <v>       0.23809524       0.20000000       0.00000000 </v>
   <v>       0.28571429       0.20000000       0.00000000 </v>
   <v>       0.33333333       0.20000000       0.00000000 </v>
   <v>       0.38095238       0.20000000       0.00000000 </v>
   <v>       0.42857143       0.20000000       0.00000000 </v>
   <v>       0.47619048       0.20000000       0.00000000 </v>
   <v>      -0.47619048       0.20000000       0.00000000 </v>
   <v>      -0.42857143       0.20000000       0.00000000 </v>
   <v>      -0.38095238       0.20000000       0.00000000 </v>
   <v>      -0.33333333       0.20000000       0.00000000 </v>
   <v>      -0.28571429       0.20000000       0.00000000 </v>
   <v>      -0.23809524       0.20000000       0.00000000 </v>
   <v>      -0.19047619       0.20000000       0.00000000 </v>
   <v>      -0.14285714       0.20000000       0.00000000 </v>
   <v>      -0.09523810       0.20000000       0.00000000 </v>
   <v>      -0.04761905       0.20000000       0.00000000 </v>
   <v>       0.00000000       0.26666667       0.00000000 </v>
   <v>       0.04761905       0.26666667       0.00000000 </v>
   <v>       0.09523810       0.26666667       0.00000000 </v>
   <v>       0.14285714       0.26666667       0.00000000 </v>
   <v>       0.19047619       0.26666667       0.00000000 </v>
   <v>       0.23809524       0.26666667       0.00000000 </v>
   <v>       0.28571429       0.26666667       0.00000000 </v>
   <v>       0.33333333       0.26666667       0.00000000 </v>
   <v>       0.38095238       0.26666667       0.00000000 </v>
   <v>       0.42857143       0.26666667       0.00000000 </v>
   <v>       0.47619048       0.26666667       0.00000000 </v>
   <v>      -0.47619048       0.26666667       0.00000000 </v>
   <v>      -0.42857143       0.26666667       0.00000000 </v>
   <v>      -0.38095238       0.26666667       0.00000000 </v>
   <v>      -0.33333333       0.26666667       0.00000000 </v>
   <v>      -0.28571429       0.26666667       0.00000000 </v>
   <v>      -0.23809524       0.26666667       0.00000000 </v>
   <v>      -0.19047619       0.26666667       0.00000000 </v>
   <v>      -0.14285714       0.26666667       0.00000000 </v>
   <v>      -0.09523810       0.26666667       0.00000000 </v>
   <v>      -0.04761905       0.26666667       0.00000000 </v>
   <v>       0.00000000       0.33333333       0.00000000 </v>
   <v>       0.04761905       0.33333333       0.00000000 </v>
   <v>       0.09523810       0.33333333       0.00000000 </v>
   <v>       0.14285714       0.33333333       0.00000000 </v>
   <v>       0.19047619       0.33333333       0.00000000 </v>
   <v>       0.23809524       0.33333333       0.00000000 </v>
   <v>       0.28571429       0.33333333       0.00000000 </v>
   <v>       0.33333333       0.33333333       0.00000000 </v>
   <v>       0.38095238       0.33333333       0.00000000 </v>
   <v>       0.42857143       0.33333333       0.00000000 </v>
   <v>       0.47619048       0.33333333       0.00000000 </v>
   <v>      -0.47619048       0.33333333       0.00000000 </v>
   <v>      -0.42857143       0.33333333       0.00000000 </v>
   <v>      -0.38095238       0.33333333       0.00000000 </v>
   <v>      -0.33333333       0.33333333       0.00000000 </v>
   <v>      -0.28571429       0.33333333       0.00000000 </v>
   <v>      -0.23809524       0.33333333       0.00000000 </v>
   <v>      -0.19047619       0.33333333       0.00000000 </v>
   <v>      -0.14285714       0.33333333       0.00000000 </v>
   <v>      -0.09523810       0.33333333       0.00000000 </v>
   <v>      -0.04761905       0.33333333       0.00000000 </v>
   <v>       0.00000000       0.40000000       0.00000000 </v>
   <v>       0.04761905       0.40000000       0.00000000 </v>
   <v>       0.09523810       0.40000000       0.00000000 </v>
   <v>       0.14285714       0.40000000       0.00000000 </v>
   <v>       0.19047619       0.40000000       0.00000000 </v>
   <v>       0.23809524       0.40000000       0.00000000 </v>
   <v>       0.28571429       0.40000000       0.00000000 </v>
   <v>       0.33333333       0.40000000       0.00000000 </v>
   <v>       0.38095238       0.40000000       0.00000000 </v>
   <v>       0.42857143       0.40000000       0.00000000 </v>
   <v>       0.47619048       0.40000000       0.00000000 </v>
   <v>      -0.47619048       0.40000000       0.00000000 </v>
   <v>      -0.42857143       0.40000000       0.00000000 </v>
   <v>      -0.38095238       0.40000000       0.00000000 </v>
   <v>      -0.33333333       0.40000000       0.00000000 </v>
   <v>      -0.28571429       0.40000000       0.00000000 </v>
   <v>      -0.23809524       0.40000000       0.00000000 </v>
   <v>      -0.19047619       0.40000000       0.00000000 </v>
   <v>      -0.14285714       0.40000000       0.00000000 </v>
   <v>      -0.09523810       0.40000000       0.00000000 </v>
   <v>      -0.04761905       0.40000000       0.00000000 </v>
   <v>       0.00000000       0.46666667       0.00000000 </v>
   <v>       0.04761905       0.46666667       0.00000000 </v>
   <v>       0.09523810       0.46666667       0.00000000 </v>
   <v>       0.14285714       0.46666667       0.00000000 </v>
   <v>       0.19047619       0.46666667       0.00000000 </v>
   <v>       0.23809524       0.46666667       0.00000000 </v>
   <v>       0.28571429       0.46666667       0.00000000 </v>
   <v>       0.33333333       0.46666667       0.00000000 </v>
   <v>       0.38095238       0.46666667       0.00000000 </v>
   <v>       0.42857143       0.46666667       0.00000000 </v>
   <v>       0.47619048       0.46666667       0.00000000 </v>
   <v>      -0.47619048       0.46666667       0.00000000 </v>
   <v>      -0.42857143       0.46666667       0.00000000 </v>
   <v>      -0.38095238       0.46666667       0.00000000 </v>
   <v>      -0.33333333       0.46666667       0.00000000 </v>
   <v>      -0.28571429       0.46666667       0.00000000 </v>
   <v>      -0.23809524       0.46666667       0.00000000 </v>
   <v>      -0.19047619       0.46666667       0.00000000 </v>
   <v>      -0.14285714       0.46666667       0.00000000 </v>
   <v>      -0.09523810       0.46666667       0.00000000 </v>
   <v>      -0.04761905       0.46666667       0.00000000 </v>
  </varray>
  <varray name="weights" >
   <v>       0.00317460 </v>
   <v>       0.00634921 </v>
   <v>       0.00634921 </v>
   <v>       0.00634921 </v>
   <v>       0.00634921 </v>
   <v>       0.00634921 </v>
   <v>       0.00634921 </v>
   <v>       0.00634921 </v>
   <v>       0.00634921 </v>
   <v>       0.00634921 </v>
   <v>       0.00634921 </v>
   <v>       0.00634921 </v>
   <v>       0.00634921 </v>
   <v>       0.00634921 </v>
   <v>       0.00634921 </v>
   <v>       0.00634921 </v>
   <v>       0.00634921 </v>
   <v>       0.00634921 </v>
   <v>       0.00634921 </v>
   <v>       0.00634921 </v>
   <v>       0.00634921 </v>
   <v>       0.00634921 </v>
   <v>       0.00634921 </v>
   <v>       0.00634921 </v>
   <v>       0.00634921 </v>
   <v>       0.00634921 </v>
   <v>       0.00634921 </v>
   <v>       0.00634921 </v>
   <v>       0.00634921 </v>
   <v>       0.00634921 </v>
   <v>       0.00634921 </v>
   <v>       0.00634921 </v>
   <v>       0.00634921 </v>
   <v>       0.00634921 </v>
   <v>       0.00634921 </v>
   <v>       0.00634921 </v>
   <v>       0.00634921 </v>
   <v>       0.00634921 </v>
   <v>       0.00634921 </v>
   <v>       0.00634921 </v>
   <v>       0.00634921 </v>
   <v>       0.00634921 </v>
   <v>       0.00634921 </v>
   <v>       0.00634921 </v>
   <v>       0.00634921 </v>
   <v>       0.00634921 </v>
   <v>       0.00634921 </v>
   <v>       0.00634921 </v>
   <v>       0.00634921 </v>
   <v>       0.00634921 </v>
   <v>       0.00634921 </v>
   <v>       0.00634921 </v>
   <v>       0.00634921 </v>
   <v>       0.00634921 </v>
   <v>       0.00634921 </v>
   <v>       0.00634921 </v>
   <v>       0.00634921 </v>
   <v>       0.00634921 </v>
   <v>       0.00634921 </v>
   <v>       0.00634921 </v>
   <v>       0.00634921 </v>
   <v>       0.00634921 </v>
   <v>       0.00634921 </v>
   <v>       0.00634921 </v>
   <v>       0.00634921 </v>
   <v>       0.00634921 </v>
   <v>       0.00634921 </v>
   <v>       0.00634921 </v>
   <v>       0.00634921 </v>
   <v>       0.00634921 </v>
   <v>       0.00634921 </v>
   <v>       0.00634921 </v>
   <v>       0.00634921 </v>
   <v>       0.00634921 </v>
   <v>       0.00634921 </v>
   <v>       0.00634921 </v>
   <v>       0.00634921 </v>
   <v>       0.00634921 </v>
   <v>       0.00634921 </v>
   <v>       0.00634921 </v>
   <v>       0.00634921 </v>
   <v>       0.00634921 </v>
   <v>       0.00634921 </v>
   <v>       0.00634921 </v>
   <v>       0.00634921 </v>
   <v>       0.00634921 </v>
   <v>       0.00634921 </v>
   <v>       0.00634921 </v>
   <v>       0.00634921 </v>
   <v>       0.00634921 </v>
   <v>       0.00634921 </v>
   <v>       0.00634921 </v>
   <v>       0.00634921 </v>
   <v>       0.00634921 </v>
   <v>       0.00634921 </v>
   <v>       0.00634921 </v>
   <v>       0.00634921 </v>
   <v>       0.00634921 </v>
   <v>       0.00634921 </v>
   <v>       0.00634921 </v>
   <v>       0.00634921 </v>
   <v>       0.00634921 </v>
   <v>       0.00634921 </v>
   <v>       0.00634921 </v>
   <v>       0.00634921 </v>
   <v>       0.00634921 </v>
   <v>       0.00634921 </v>
   <v>       0.00634921 </v>
   <v>       0.00634921 </v>
   <v>       0.00634921 </v>
   <v>       0.00634921 </v>
   <v>       0.00634921 </v>
   <v>       0.00634921 </v>
   <v>       0.00634921 </v>
   <v>       0.00634921 </v>
   <v>       0.00634921 </v>
   <v>       0.00634921 </v>
   <v>       0.00634921 </v>
   <v>       0.00634921 </v>
   <v>       0.00634921 </v>
   <v>       0.00634921 </v>
   <v>       0.00634921 </v>
   <v>       0.00634921 </v>
   <v>       0.00634921 </v>
   <v>       0.00634921 </v>
   <v>       0.00634921 </v>
   <v>       0.00634921 </v>
   <v>       0.00634921 </v>
   <v>       0.00634921 </v>
   <v>       0.00634921 </v>
   <v>       0.00634921 </v>
   <v>       0.00634921 </v>
   <v>       0.00634921 </v>
   <v>       0.00634921 </v>
   <v>       0.00634921 </v>
   <v>       0.00634921 </v>
   <v>       0.00634921 </v>
   <v>       0.00634921 </v>
   <v>       0.00634921 </v>
   <v>       0.00634921 </v>
   <v>       0.00634921 </v>
   <v>       0.00634921 </v>
   <v>       0.00634921 </v>
   <v>       0.00634921 </v>
   <v>       0.00634921 </v>
   <v>       0.00634921 </v>
   <v>       0.00634921 </v>
   <v>       0.00634921 </v>
   <v>       0.00634921 </v>
   <v>       0.00634921 </v>
   <v>       0.00634921 </v>
   <v>       0.00634921 </v>
   <v>       0.00634921 </v>
   <v>       0.00634921 </v>
   <v>       0.00634921 </v>
   <v>       0.00634921 </v>
   <v>       0.00634921 </v>
   <v>       0.00634921 </v>
  </varray>
 </kpoints>
 <parameters>
  <separator name="general" >
   <i type="string" name="SYSTEM">unknown system</i>
   <i type="logical" name="LCOMPAT"> F  </i>
  </separator>
  <separator name="electronic" >
   <i type="string" name="PREC">a</i>
   <i name="ENMAX">    520.00000000</i>
   <i name="ENAUG">    342.92400000</i>
   <i name="EDIFF">      0.00001000</i>
   <i type="int" name="IALGO">    38</i>
   <i type="int" name="IWAVPR">    11</i>
   <i type="int" name="NBANDS">    16</i>
   <i name="NELECT">     20.00000000</i>
   <i type="int" name="TURBO">     0</i>
   <i type="int" name="IRESTART">     0</i>
   <i type="int" name="NREBOOT">     0</i>
   <i type="int" name="NMIN">     0</i>
   <i name="EREF">      0.00000000</i>
   <separator name="electronic smearing" >
    <i type="int" name="ISMEAR">     0</i>
    <i name="SIGMA">      0.02000000</i>
    <i name="KSPACING">      0.50000000</i>
    <i type="logical" name="KGAMMA"> T  </i>
   </separator>
   <separator name="electronic projectors" >
    <i type="logical" name="LREAL"> F  </i>
    <v name="ROPT">      0.00000000</v>
    <i type="int" name="LMAXPAW">  -100</i>
    <i type="int" name="LMAXMIX">     2</i>
    <i type="logical" name="NLSPLINE"> F  </i>
   </separator>
   <separator name="electronic startup" >
    <i type="int" name="ISTART">     0</i>
    <i type="int" name="ICHARG">     2</i>
    <i type="int" name="INIWAV">     1</i>
   </separator>
   <separator name="electronic spin" >
    <i type="int" name="ISPIN">     1</i>
    <i type="logical" name="LNONCOLLINEAR"> F  </i>
    <v name="MAGMOM">      1.00000000      1.00000000      1.00000000      1.00000000</v>
    <i name="NUPDOWN">     -1.00000000</i>
    <i type="logical" name="LSORBIT"> F  </i>
    <v name="SAXIS">      0.00000000      0.00000000      1.00000000</v>
    <i type="logical" name="LSPIRAL"> F  </i>
    <v name="QSPIRAL">      0.00000000      0.00000000      0.00000000</v>
    <i type="logical" name="LZEROZ"> F  </i>
   </separator>
   <separator name="electronic exchange-correlation" >
    <i type="logical" name="LASPH"> F  </i>
    <i type="logical" name="LMETAGGA"> F  </i>
   </separator>
   <separator name="electronic convergence" >
    <i type="int" name="NELM">   250</i>
    <i type="int" name="NELMDL">    -5</i>
    <i type="int" name="NELMIN">     6</i>
    <i name="ENINI">    520.00000000</i>
    <separator name="electronic convergence detail" >
     <i type="logical" name="LDIAG"> T  </i>
     <i type="logical" name="LSUBROT"> F  </i>
     <i name="WEIMIN">      0.00100000</i>
     <i name="EBREAK">      0.00000016</i>
     <i name="DEPER">      0.30000000</i>
     <i type="int" name="NRMM">     4</i>
     <i name="TIME">      0.40000000</i>
    </separator>
   </separator>
   <separator name="electronic mixer" >
    <i name="AMIX">      0.40000000</i>
    <i name="BMIX">      1.00000000</i>
    <i name="AMIN">      0.10000000</i>
    <i name="AMIX_MAG">      1.60000000</i>
    <i name="BMIX_MAG">      1.00000000</i>
    <separator name="electronic mixer details" >
     <i type="int" name="IMIX">     4</i>
     <i type="logical" name="MIXFIRST"> F  </i>
     <i type="int" name="MAXMIX">   -45</i>
     <i name="WC">    100.00000000</i>
     <i type="int" name="INIMIX">     1</i>
     <i type="int" name="MIXPRE">     1</i>
     <i type="int" name="MREMOVE">     5</i>
    </separator>
   </separator>
   <separator name="electronic dipolcorrection" >
    <i type="logical" name="LDIPOL"> F  </i>
    <i type="logical" name="LMONO"> F  </i>
    <i type="int" name="IDIPOL">     0</i>
    <i name="EPSILON">      1.00000000</i>
    <v name="DIPOL">   -100.00000000   -100.00000000   -100.00000000</v>
    <i name="EFIELD">      0.00000000</i>
   </separator>
  </separator>
  <separator name="grids" >
   <i type="int" name="NGX">    28</i>
   <i type="int" name="NGY">    36</i>
   <i type="int" name="NGZ">   150</i>
   <i type="int" name="NGXF">    56</i>
   <i type="int" name="NGYF">    72</i>
   <i type="int" name="NGZF">   300</i>
   <i type="logical" name="ADDGRID"> F  </i>
  </separator>
  <separator name="ionic" >
   <i type="int" name="NSW">   200</i>
   <i type="int" name="IBRION">     2</i>
   <i type="int" name="ISIF">     2</i>
   <i name="PSTRESS">      0.00000000</i>
   <i name="EDIFFG">     -0.01000000</i>
   <i type="int" name="NFREE">     1</i>
   <i name="POTIM">      0.30000000</i>
   <i name="SMASS">     -3.00000000</i>
   <i name="SCALEE">      1.00000000</i>
  </separator>
  <separator name="ionic md" >
   <i name="TEBEG">      0.00010000</i>
   <i name="TEEND">      0.00010000</i>
   <i type="int" name="NBLOCK">     1</i>
   <i type="int" name="KBLOCK">   200</i>
   <i type="int" name="NPACO">   256</i>
   <i name="APACO">     16.00000000</i>
  </separator>
  <separator name="symmetry" >
   <i type="int" name="ISYM">     2</i>
   <i name="SYMPREC">      0.00001000</i>
  </separator>
  <separator name="dos" >
   <i type="logical" name="LORBIT"> F  </i>
   <v name="RWIGS">     -1.00000000</v>
   <i type="int" name="NEDOS">   301</i>
   <i name="EMIN">     10.00000000</i>
   <i name="EMAX">    -10.00000000</i>
   <i name="EFERMI">      0.00000000</i>
  </separator>
  <separator name="writing" >
   <i type="int" name="NWRITE">     2</i>
   <i type="logical" name="LWAVE"> F  </i>
   <i type="logical" name="LCHARG"> F  </i>
   <i type="logical" name="LPARD"> F  </i>
   <i type="logical" name="LVTOT"> F  </i>
   <i type="logical" name="LVHAR"> F  </i>
   <i type="logical" name="LELF"> F  </i>
   <i type="logical" name="LOPTICS"> F  </i>
   <v name="STM">      0.00000000      0.00000000      0.00000000      0.00000000      0.00000000      0.00000000      0.00000000</v>
  </separator>
  <separator name="performance" >
   <i type="int" name="NPAR">     4</i>
   <i type="int" name="NSIM">     4</i>
   <i type="int" name="NBLK">    -1</i>
   <i type="logical" name="LPLANE"> T  </i>
   <i type="logical" name="LSCALAPACK"> T  </i>
   <i type="logical" name="LSCAAWARE"> F  </i>
   <i type="logical" name="LSCALU"> F  </i>
   <i type="logical" name="LASYNC"> F  </i>
   <i type="logical" name="LORBITALREAL"> F  </i>
  </separator>
  <separator name="miscellaneous" >
   <i type="int" name="IDIOT">     3</i>
   <i type="logical" name="LMUSIC"> F  </i>
   <v name="POMASS">     30.97400000</v>
   <v name="DARWINR">      0.00000000</v>
   <v name="DARWINV">      1.00000000</v>
   <i type="logical" name="LCORR"> T  </i>
  </separator>
  <i type="logical" name="GGA_COMPAT"> T  </i>
  <i type="logical" name="LBERRY"> F  </i>
  <i type="int" name="ICORELEVEL">     0</i>
  <i type="logical" name="LDAU"> F  </i>
  <i type="int" name="I_CONSTRAINED_M">     0</i>
  <separator name="electronic exchange-correlation" >
   <i type="string" name="GGA">--</i>
   <i type="int" name="VOSKOWN">     0</i>
   <i type="logical" name="LHFCALC"> F  </i>
   <i type="string" name="PRECFOCK"></i>
   <i type="logical" name="LSYMGRAD"> F  </i>
   <i type="logical" name="LHFONE"> F  </i>
   <i type="logical" name="LRHFCALC"> F  </i>
   <i type="logical" name="LTHOMAS"> F  </i>
   <i type="logical" name="LMODELHF"> F  </i>
   <i name="ENCUT4O">     -1.00000000</i>
   <i type="int" name="EXXOEP">     0</i>
   <i type="int" name="FOURORBIT">     0</i>
   <i name="AEXX">      0.00000000</i>
   <i name="HFALPHA">      0.00000000</i>
   <i name="MCALPHA">      0.00000000</i>
   <i name="ALDAX">      1.00000000</i>
   <i name="AGGAX">      1.00000000</i>
   <i name="ALDAC">      1.00000000</i>
   <i name="AGGAC">      1.00000000</i>
   <i type="int" name="NKREDX">     1</i>
   <i type="int" name="NKREDY">     1</i>
   <i type="int" name="NKREDZ">     1</i>
   <i type="logical" name="SHIFTRED"> F  </i>
   <i type="logical" name="ODDONLY"> F  </i>
   <i type="logical" name="EVENONLY"> F  </i>
   <i type="int" name="LMAXFOCK">     0</i>
   <i type="int" name="NMAXFOCKAE">     0</i>
   <i type="logical" name="LFOCKAEDFT"> F  </i>
   <i name="HFSCREEN">      0.00000000</i>
   <i name="HFSCREENC">      0.00000000</i>
   <i type="int" name="NBANDSGWLOW">     0</i>
  </separator>
  <separator name="vdW DFT" >
   <i type="logical" name="LUSE_VDW"> F  </i>
   <i name="Zab_VDW">     -0.84910000</i>
   <i name="PARAM1">      0.12340000</i>
   <i name="PARAM2">      1.00000000</i>
   <i name="PARAM3">      0.00000000</i>
  </separator>
  <separator name="model GW" >
   <i type="int" name="MODEL_GW">     0</i>
   <i name="MODEL_EPS0">     51.28275098</i>
   <i name="MODEL_ALPHA">      1.00000000</i>
  </separator>
  <separator name="linear response parameters" >
   <i type="logical" name="LEPSILON"> F  </i>
   <i type="logical" name="LRPA"> F  </i>
   <i type="logical" name="LNABLA"> F  </i>
   <i type="logical" name="LVEL"> F  </i>
   <i type="int" name="KINTER">     0</i>
   <i name="CSHIFT">      0.10000000</i>
   <i name="OMEGAMAX">     -1.00000000</i>
   <i name="DEG_THRESHOLD">      0.00200000</i>
  </separator>
  <separator name="orbital magnetization" >
   <i type="logical" name="NUCIND"> F  </i>
   <v name="MAGPOS">      0.00000000      0.00000000      0.00000000</v>
   <i type="logical" name="LNICSALL"> T  </i>
   <i type="logical" name="ORBITALMAG"> F  </i>
   <i type="logical" name="LMAGBLOCH"> F  </i>
   <i type="logical" name="LCHIMAG"> F  </i>
   <i type="logical" name="LGAUGE"> T  </i>
   <i type="int" name="MAGATOM">     0</i>
   <v name="MAGDIPOL">      0.00000000      0.00000000      0.00000000</v>
   <v name="AVECCONST">      0.00000000      0.00000000      0.00000000</v>
  </separator>
  <separator name="response functions" >
   <i type="logical" name="LADDER"> F  </i>
   <i type="logical" name="LFXC"> F  </i>
   <i type="logical" name="LHARTREE"> T  </i>
   <i type="int" name="IBSE">     0</i>
   <v type="int" name="KPOINT">    -1     0     0     0</v>
   <i type="logical" name="LTCTE"> F  </i>
   <i type="logical" name="LTETE"> F  </i>
   <i type="logical" name="LTRIPLET"> F  </i>
   <i type="logical" name="LFXCEPS"> F  </i>
   <i type="logical" name="LFXHEG"> F  </i>
   <i type="int" name="NATURALO">     0</i>
   <i type="logical" name="L2ORDER"> F  </i>
   <i type="logical" name="LUSEW"> F  </i>
   <i name="ENCUTGW">     -2.00000000</i>
   <i name="ENCUTGWSOFT">     -2.00000000</i>
   <i name="ENCUTLF">     -1.00000000</i>
   <i type="int" name="LMAXMP2">    -1</i>
   <i name="SCISSOR">      0.00000000</i>
   <i type="int" name="NOMEGA">     0</i>
   <i type="int" name="NOMEGAR">     0</i>
   <i type="int" name="NBANDSGW">    -1</i>
   <i type="int" name="NBANDSO">    -1</i>
   <i type="int" name="NBANDSV">    -1</i>
   <i type="int" name="NELM">   250</i>
   <i type="int" name="NELMHF">     1</i>
   <i type="int" name="DIM">     3</i>
   <i type="int" name="ANTIRES">     0</i>
   <i name="OMEGAMAX">    -30.00000000</i>
   <i name="OMEGAMIN">    -30.00000000</i>
   <i name="OMEGATL">   -200.00000000</i>
   <i type="int" name="OMEGAGRID">     0</i>
   <i name="CSHIFT">     -0.10000000</i>
   <i type="logical" name="SELFENERGY"> F  </i>
   <i type="logical" name="LSPECTRAL"> F  </i>
   <i type="logical" name="LSPECTRALGW"> F  </i>
   <i type="logical" name="LSINGLES"> F  </i>
   <i type="logical" name="LFERMIGW"> F  </i>
   <i type="logical" name="ODDONLYGW"> F  </i>
   <i type="logical" name="EVENONLYGW"> F  </i>
   <i type="int" name="NKREDLFX">     1</i>
   <i type="int" name="NKREDLFY">     1</i>
   <i type="int" name="NKREDLFZ">     1</i>
   <i type="int" name="MAXMEM">  1800</i>
   <i type="int" name="TELESCOPE">     0</i>
   <i type="int" name="TAUPAR">     1</i>
   <i type="int" name="OMEGAPAR">    -1</i>
   <i name="LAMBDA">      1.00000000</i>
  </separator>
  <separator name="External order field" >
   <i name="OFIELD_KAPPA">      0.00000000</i>
   <v name="OFIELD_K">      0.00000000      0.00000000      0.00000000</v>
   <i name="OFIELD_Q6_NEAR">      0.00000000</i>
   <i name="OFIELD_Q6_FAR">      0.00000000</i>
   <i name="OFIELD_A">      0.00000000</i>
  </separator>
 </parameters>
 <atominfo>
  <atoms>       4 </atoms>
  <types>       1 </types>
  <array name="atoms" >
   <dimension dim="1">ion</dimension>
   <field type="string">element</field>
   <field type="int">atomtype</field>
   <set>
    <rc><c>P </c><c>   1</c></rc>
    <rc><c>P </c><c>   1</c></rc>
    <rc><c>P </c><c>   1</c></rc>
    <rc><c>P </c><c>   1</c></rc>
   </set>
  </array>
  <array name="atomtypes" >
   <dimension dim="1">type</dimension>
   <field type="int">atomspertype</field>
   <field type="string">element</field>
   <field>mass</field>
   <field>valence</field>
   <field type="string">pseudopotential</field>
   <set>
    <rc><c>   4</c><c>P </c><c>     30.97400000</c><c>      5.00000000</c><c>  PAW_PBE P 06Sep2000                   </c></rc>
   </set>
  </array>
 </atominfo>
 <structure name="initialpos" >
  <crystal>
   <varray name="basis" >
    <v>       3.48943300       0.00000000       0.00000000 </v>
    <v>       0.00000000       4.89289500      -0.00005300 </v>
    <v>       0.00000000       0.00000000      20.02439000 </v>
   </varray>
   <i name="volume">    341.88500651 </i>
   <varray name="rec_basis" >
    <v>       0.28657951       0.00000000       0.00000000 </v>
    <v>       0.00000000       0.20437798       0.00000000 </v>
    <v>       0.00000000       0.00000054       0.04993910 </v>
   </varray>
  </crystal>
  <varray name="positions" >
   <v>       0.50000000       0.91077300       0.55252100 </v>
   <v>       0.50000000       0.08922700       0.44747900 </v>
   <v>       0.00000000       0.41076900       0.44747900 </v>
   <v>       0.00000000       0.58923100       0.55252100 </v>
  </varray>
 </structure>
 <calculation>
  <scstep>
   <time name="dav">    1.54    1.54</time>
   <time name="total">    1.57    1.57</time>
   <energy>
    <i name="alphaZ">      4.69210702 </i>
    <i name="ewald">   1611.50858167 </i>
    <i name="hartreedc">  -2206.50228699 </i>
    <i name="XCdc">     12.05009835 </i>
    <i name="pawpsdc">    559.04011960 </i>
    <i name="pawaedc">   -526.39432044 </i>
    <i name="eentropy">     -0.00064676 </i>
    <i name="bandstr">    -29.97749720 </i>
    <i name="atom">    704.16778566 </i>
    <i name="e_fr_energy">    128.58394092 </i>
    <i name="e_wo_entrp">    128.58458768 </i>
    <i name="e_0_energy">    128.58426430 </i>
   </energy>
  </scstep>
  <scstep>
   <time name="dav">    2.06    2.06</time>
   <time name="total">    2.06    2.07</time>
   <energy>
    <i name="e_fr_energy">     -5.42986452 </i>
    <i name="e_wo_entrp">     -5.42986452 </i>
    <i name="e_0_energy">     -5.42986452 </i>
   </energy>
  </scstep>
  <scstep>
   <time name="dav">    1.92    1.92</time>
   <time name="total">    1.92    1.92</time>
   <energy>
    <i name="e_fr_energy">    -20.94897239 </i>
    <i name="e_wo_entrp">    -20.94897239 </i>
    <i name="e_0_energy">    -20.94897239 </i>
   </energy>
  </scstep>
  <scstep>
   <time name="dav">    1.93    1.93</time>
   <time name="total">    1.93    1.93</time>
   <energy>
    <i name="e_fr_energy">    -21.27577680 </i>
    <i name="e_wo_entrp">    -21.27577680 </i>
    <i name="e_0_energy">    -21.27577680 </i>
   </energy>
  </scstep>
  <scstep>
   <time name="dav">    2.04    2.04</time>
   <time name="total">    2.14    2.14</time>
   <energy>
    <i name="e_fr_energy">    -21.28594189 </i>
    <i name="e_wo_entrp">    -21.28594189 </i>
    <i name="e_0_energy">    -21.28594189 </i>
   </energy>
  </scstep>
  <scstep>
   <time name="dav">    1.88    1.88</time>
   <time name="total">    1.99    2.00</time>
   <energy>
    <i name="e_fr_energy">    -21.18938473 </i>
    <i name="e_wo_entrp">    -21.18938473 </i>
    <i name="e_0_energy">    -21.18938473 </i>
   </energy>
  </scstep>
  <scstep>
   <time name="dav">    1.80    1.80</time>
   <time name="total">    1.92    1.92</time>
   <energy>
    <i name="e_fr_energy">    -21.13910853 </i>
    <i name="e_wo_entrp">    -21.13910853 </i>
    <i name="e_0_energy">    -21.13910853 </i>
   </energy>
  </scstep>
  <scstep>
   <time name="dav">    1.87    1.87</time>
   <time name="total">    1.98    1.98</time>
   <energy>
    <i name="e_fr_energy">    -21.13940446 </i>
    <i name="e_wo_entrp">    -21.13940446 </i>
    <i name="e_0_energy">    -21.13940446 </i>
   </energy>
  </scstep>
  <scstep>
   <time name="dav">    2.14    2.14</time>
   <time name="total">    2.25    2.25</time>
   <energy>
    <i name="e_fr_energy">    -21.13938020 </i>
    <i name="e_wo_entrp">    -21.13938020 </i>
    <i name="e_0_energy">    -21.13938020 </i>
   </energy>
  </scstep>
  <scstep>
   <time name="dav">    1.92    1.92</time>
   <time name="total">    2.04    2.04</time>
   <energy>
    <i name="e_fr_energy">    -21.13937007 </i>
    <i name="e_wo_entrp">    -21.13937007 </i>
    <i name="e_0_energy">    -21.13937007 </i>
   </energy>
  </scstep>
  <scstep>
   <time name="dav">    1.78    1.78</time>
   <time name="total">    1.89    1.89</time>
   <energy>
    <i name="e_fr_energy">    -21.13939344 </i>
    <i name="e_wo_entrp">    -21.13939344 </i>
    <i name="e_0_energy">    -21.13939344 </i>
   </energy>
  </scstep>
  <scstep>
   <time name="dav">    1.61    1.61</time>
   <time name="total">    1.72    1.72</time>
   <energy>
    <i name="e_fr_energy">    -21.13952932 </i>
    <i name="e_wo_entrp">    -21.13952932 </i>
    <i name="e_0_energy">    -21.13952932 </i>
   </energy>
  </scstep>
  <scstep>
   <time name="dav">    1.79    1.79</time>
   <time name="total">    1.90    1.90</time>
   <energy>
    <i name="e_fr_energy">    -21.13974608 </i>
    <i name="e_wo_entrp">    -21.13974608 </i>
    <i name="e_0_energy">    -21.13974608 </i>
   </energy>
  </scstep>
  <scstep>
   <time name="dav">    1.64    1.64</time>
   <time name="total">    1.75    1.75</time>
   <energy>
    <i name="e_fr_energy">    -21.13980229 </i>
    <i name="e_wo_entrp">    -21.13980229 </i>
    <i name="e_0_energy">    -21.13980229 </i>
   </energy>
  </scstep>
  <scstep>
   <time name="dav">    1.55    1.55</time>
   <time name="total">    1.66    1.66</time>
   <energy>
    <i name="e_fr_energy">    -21.13983137 </i>
    <i name="e_wo_entrp">    -21.13983137 </i>
    <i name="e_0_energy">    -21.13983137 </i>
   </energy>
  </scstep>
  <scstep>
   <time name="dav">    1.42    1.42</time>
   <time name="total">    1.53    1.53</time>
   <energy>
    <i name="e_fr_energy">    -21.13984170 </i>
    <i name="e_wo_entrp">    -21.13984170 </i>
    <i name="e_0_energy">    -21.13984170 </i>
   </energy>
  </scstep>
  <scstep>
   <time name="dav">    1.54    1.54</time>
   <time name="total">    1.56    1.56</time>
   <energy>
    <i name="alphaZ">      4.69210702 </i>
    <i name="ewald">   1611.50858167 </i>
    <i name="hartreedc">  -2217.89929526 </i>
    <i name="XCdc">     12.95644180 </i>
    <i name="pawpsdc">   1686.87441853 </i>
    <i name="pawaedc">  -1654.41741667 </i>
    <i name="eentropy">     -0.00000000 </i>
    <i name="bandstr">   -169.02247099 </i>
    <i name="atom">    704.16778566 </i>
    <i name="e_fr_energy">    -21.13984822 </i>
    <i name="e_wo_entrp">    -21.13984822 </i>
    <i name="e_0_energy">    -21.13984822 </i>
   </energy>
  </scstep>
  <structure>
   <crystal>
    <varray name="basis" >
     <v>       3.48943300       0.00000000       0.00000000 </v>
     <v>       0.00000000       4.89289500      -0.00005300 </v>
     <v>       0.00000000       0.00000000      20.02439000 </v>
    </varray>
    <i name="volume">    341.88500651 </i>
    <varray name="rec_basis" >
     <v>       0.28657951       0.00000000       0.00000000 </v>
     <v>       0.00000000       0.20437798       0.00000000 </v>
     <v>       0.00000000       0.00000054       0.04993910 </v>
    </varray>
   </crystal>
   <varray name="positions" >
    <v>       0.50000000       0.91077300       0.55252100 </v>
    <v>       0.50000000       0.08922700       0.44747900 </v>
    <v>       0.00000000       0.41076900       0.44747900 </v>
    <v>       0.00000000       0.58923100       0.55252100 </v>
   </varray>
  </structure>
  <varray name="forces" >
   <v>       0.00000011      -0.78797352      -0.22578396 </v>
   <v>      -0.00000011       0.78797352       0.22578396 </v>
   <v>       0.00000014      -0.78798525       0.22580333 </v>
   <v>      -0.00000014       0.78798525      -0.22580333 </v>
  </varray>
  <varray name="stress" >
   <v>     -27.71755384      -0.00000053      -0.00000072 </v>
   <v>      -0.00000055     -21.41816821       0.00034723 </v>
   <v>      -0.00000070       0.00034728      -4.51148461 </v>
  </varray>
  <energy>
   <i name="e_fr_energy">    -21.13984822 </i>
   <i name="e_wo_entrp">    -21.13984822 </i>
   <i name="e_0_energy">     -0.00000000 </i>
  </energy>
  <time name="totalsc">   32.63   32.68</time>
 </calculation>
 <calculation>
  <scstep>
   <time name="dav">    1.63    1.63</time>
   <time name="total">    1.75    1.75</time>
   <energy>
    <i name="alphaZ">      4.69210702 </i>
    <i name="ewald">   1619.70190222 </i>
    <i name="hartreedc">  -2225.02307035 </i>
    <i name="XCdc">     13.08790156 </i>
    <i name="pawpsdc">   1686.84357067 </i>
    <i name="pawaedc">  -1654.38656227 </i>
    <i name="eentropy">     -0.00000000 </i>
    <i name="bandstr">   -170.27863641 </i>
    <i name="atom">    704.16778566 </i>
    <i name="e_fr_energy">    -21.19500189 </i>
    <i name="e_wo_entrp">    -21.19500189 </i>
    <i name="e_0_energy">    -21.19500189 </i>
   </energy>
  </scstep>
  <scstep>
   <time name="dav">    1.88    1.88</time>
   <time name="total">    1.99    1.99</time>
   <energy>
    <i name="e_fr_energy">    -21.20160152 </i>
    <i name="e_wo_entrp">    -21.20160152 </i>
    <i name="e_0_energy">    -21.20160152 </i>
   </energy>
  </scstep>
  <scstep>
   <time name="dav">    2.09    2.09</time>
   <time name="total">    2.20    2.20</time>
   <energy>
    <i name="e_fr_energy">    -21.20166529 </i>
    <i name="e_wo_entrp">    -21.20166529 </i>
    <i name="e_0_energy">    -21.20166529 </i>
   </energy>
  </scstep>
  <scstep>
   <time name="dav">    2.12    2.12</time>
   <time name="total">    2.23    2.23</time>
   <energy>
    <i name="e_fr_energy">    -21.20164999 </i>
    <i name="e_wo_entrp">    -21.20164999 </i>
    <i name="e_0_energy">    -21.20164999 </i>
   </energy>
  </scstep>
  <scstep>
   <time name="dav">    1.78    1.78</time>
   <time name="total">    1.90    1.90</time>
   <energy>
    <i name="e_fr_energy">    -21.20165441 </i>
    <i name="e_wo_entrp">    -21.20165441 </i>
    <i name="e_0_energy">    -21.20165441 </i>
   </energy>
  </scstep>
  <scstep>
   <time name="dav">    1.42    1.42</time>
   <time name="total">    1.44    1.44</time>
   <energy>
    <i name="alphaZ">      4.69210702 </i>
    <i name="ewald">   1619.70190222 </i>
    <i name="hartreedc">  -2224.96402743 </i>
    <i name="XCdc">     13.09697549 </i>
    <i name="pawpsdc">   1748.99206985 </i>
    <i name="pawaedc">  -1716.55803766 </i>
    <i name="eentropy">     -0.00000000 </i>
    <i name="bandstr">   -170.33043026 </i>
    <i name="atom">    704.16778566 </i>
    <i name="e_fr_energy">    -21.20165511 </i>
    <i name="e_wo_entrp">    -21.20165511 </i>
    <i name="e_0_energy">    -21.20165511 </i>
   </energy>
  </scstep>
  <structure>
   <crystal>
    <varray name="basis" >
     <v>       3.48943300       0.00000000       0.00000000 </v>
     <v>       0.00000000       4.89289500      -0.00005300 </v>
     <v>       0.00000000       0.00000000      20.02439000 </v>
    </varray>
    <i name="volume">    341.88500651 </i>
    <varray name="rec_basis" >
     <v>       0.28657951       0.00000000       0.00000000 </v>
     <v>       0.00000000       0.20437798       0.00000000 </v>
     <v>       0.00000000       0.00000054       0.04993910 </v>
    </varray>
   </crystal>
   <varray name="positions" >
    <v>       0.50000000       0.90611147       0.55219461 </v>
    <v>       0.50000000       0.09388853       0.44780539 </v>
    <v>       0.00000000       0.40610740       0.44780539 </v>
    <v>      -0.00000000       0.59389260       0.55219461 </v>
   </varray>
  </structure>
  <varray name="forces" >
   <v>       0.00000009      -0.43759156      -0.20373024 </v>
   <v>      -0.00000009       0.43759156       0.20373024 </v>
   <v>       0.00000006      -0.43760200       0.20373775 </v>
   <v>      -0.00000006       0.43760200      -0.20373775 </v>
  </varray>
  <varray name="stress" >
   <v>     -27.54642202       0.00000027       0.00000115 </v>
   <v>       0.00000024     -16.25970065       0.00027789 </v>
   <v>       0.00000117       0.00027789      -4.13886273 </v>
  </varray>
  <energy>
   <i name="e_fr_energy">    -21.20165511 </i>
   <i name="e_wo_entrp">    -21.20165511 </i>
   <i name="e_0_energy">     -0.00000000 </i>
  </energy>
  <time name="totalsc">   12.33   12.35</time>
 </calculation>
 <calculation>
  <scstep>
   <time name="dav">    1.63    1.64</time>
   <time name="total">    1.75    1.75</time>
   <energy>
    <i name="alphaZ">      4.69210702 </i>
    <i name="ewald">   1630.02463558 </i>
    <i name="hartreedc">  -2233.83994722 </i>
    <i name="XCdc">     13.26171059 </i>
    <i name="pawpsdc">   1749.47316179 </i>
    <i name="pawaedc">  -1717.03911004 </i>
    <i name="eentropy">     -0.00000000 </i>
    <i name="bandstr">   -171.96064933 </i>
    <i name="atom">    704.16778566 </i>
    <i name="e_fr_energy">    -21.22030594 </i>
    <i name="e_wo_entrp">    -21.22030594 </i>
    <i name="e_0_energy">    -21.22030594 </i>
   </energy>
  </scstep>
  <scstep>
   <time name="dav">    1.91    1.91</time>
   <time name="total">    2.02    2.02</time>
   <energy>
    <i name="e_fr_energy">    -21.23068285 </i>
    <i name="e_wo_entrp">    -21.23068285 </i>
    <i name="e_0_energy">    -21.23068285 </i>
   </energy>
  </scstep>
  <scstep>
   <time name="dav">    2.06    2.06</time>
   <time name="total">    2.17    2.17</time>
   <energy>
    <i name="e_fr_energy">    -21.23077255 </i>
    <i name="e_wo_entrp">    -21.23077255 </i>
    <i name="e_0_energy">    -21.23077255 </i>
   </energy>
  </scstep>
  <scstep>
   <time name="dav">    2.12    2.12</time>
   <time name="total">    2.23    2.23</time>
   <energy>
    <i name="e_fr_energy">    -21.23075050 </i>
    <i name="e_wo_entrp">    -21.23075050 </i>
    <i name="e_0_energy">    -21.23075050 </i>
   </energy>
  </scstep>
  <scstep>
   <time name="dav">    1.79    1.79</time>
   <time name="total">    1.90    1.91</time>
   <energy>
    <i name="e_fr_energy">    -21.23076454 </i>
    <i name="e_wo_entrp">    -21.23076454 </i>
    <i name="e_0_energy">    -21.23076454 </i>
   </energy>
  </scstep>
  <scstep>
   <time name="dav">    1.45    1.45</time>
   <time name="total">    1.47    1.47</time>
   <energy>
    <i name="alphaZ">      4.69210702 </i>
    <i name="ewald">   1630.02463558 </i>
    <i name="hartreedc">  -2233.75735231 </i>
    <i name="XCdc">     13.27311581 </i>
    <i name="pawpsdc">   1832.43571221 </i>
    <i name="pawaedc">  -1800.03230215 </i>
    <i name="eentropy">     -0.00000000 </i>
    <i name="bandstr">   -172.03446987 </i>
    <i name="atom">    704.16778566 </i>
    <i name="e_fr_energy">    -21.23076805 </i>
    <i name="e_wo_entrp">    -21.23076805 </i>
    <i name="e_0_energy">    -21.23076805 </i>
   </energy>
  </scstep>
  <structure>
   <crystal>
    <varray name="basis" >
     <v>       3.48943300       0.00000000       0.00000000 </v>
     <v>       0.00000000       4.89289500      -0.00005300 </v>
     <v>       0.00000000       0.00000000      20.02439000 </v>
    </varray>
    <i name="volume">    341.88500651 </i>
    <varray name="rec_basis" >
     <v>       0.28657951       0.00000000       0.00000000 </v>
     <v>       0.00000000       0.20437798       0.00000000 </v>
     <v>       0.00000000       0.00000054       0.04993910 </v>
    </varray>
   </crystal>
   <varray name="positions" >
    <v>       0.50000000       0.90031377       0.55178867 </v>
    <v>       0.50000000       0.09968623       0.44821133 </v>
    <v>       0.00000000       0.40030962       0.44821133 </v>
    <v>      -0.00000000       0.59969038       0.55178867 </v>
   </varray>
  </structure>
  <varray name="forces" >
   <v>      -0.00000048       0.04674728      -0.18776854 </v>
   <v>       0.00000048      -0.04674728       0.18776854 </v>
   <v>      -0.00000059       0.04673959       0.18776509 </v>
   <v>       0.00000059      -0.04673959      -0.18776509 </v>
  </varray>
  <varray name="stress" >
   <v>     -26.65488917      -0.00000214       0.00000157 </v>
   <v>      -0.00000218      -9.62441049       0.00017926 </v>
   <v>       0.00000156       0.00017924      -3.82337361 </v>
  </varray>
  <energy>
   <i name="e_fr_energy">    -21.23076805 </i>
   <i name="e_wo_entrp">    -21.23076805 </i>
   <i name="e_0_energy">     -0.00000000 </i>
  </energy>
  <time name="totalsc">   12.39   12.40</time>
 </calculation>
 <calculation>
  <scstep>
   <time name="dav">    1.51    1.51</time>
   <time name="total">    1.62    1.63</time>
   <energy>
    <i name="alphaZ">      4.69210702 </i>
    <i name="ewald">   1635.81909703 </i>
    <i name="hartreedc">  -2239.21732871 </i>
    <i name="XCdc">     13.31330328 </i>
    <i name="pawpsdc">   1832.99602641 </i>
    <i name="pawaedc">  -1800.59260724 </i>
    <i name="eentropy">     -0.00000000 </i>
    <i name="bandstr">   -172.41244946 </i>
    <i name="atom">    704.16778566 </i>
    <i name="e_fr_energy">    -21.23406599 </i>
    <i name="e_wo_entrp">    -21.23406599 </i>
    <i name="e_0_energy">    -21.23406599 </i>
   </energy>
  </scstep>
  <scstep>
   <time name="dav">    1.89    1.89</time>
   <time name="total">    2.00    2.01</time>
   <energy>
    <i name="e_fr_energy">    -21.23493688 </i>
    <i name="e_wo_entrp">    -21.23493688 </i>
    <i name="e_0_energy">    -21.23493688 </i>
   </energy>
  </scstep>
  <scstep>
   <time name="dav">    2.05    2.05</time>
   <time name="total">    2.16    2.16</time>
   <energy>
    <i name="e_fr_energy">    -21.23492571 </i>
    <i name="e_wo_entrp">    -21.23492571 </i>
    <i name="e_0_energy">    -21.23492571 </i>
   </energy>
  </scstep>
  <scstep>
   <time name="dav">    1.88    1.88</time>
   <time name="total">    1.99    1.99</time>
   <energy>
    <i name="e_fr_energy">    -21.23492963 </i>
    <i name="e_wo_entrp">    -21.23492963 </i>
    <i name="e_0_energy">    -21.23492963 </i>
   </energy>
  </scstep>
  <scstep>
   <time name="dav">    1.36    1.36</time>
   <time name="total">    1.47    1.47</time>
   <energy>
    <i name="e_fr_energy">    -21.23493294 </i>
    <i name="e_wo_entrp">    -21.23493294 </i>
    <i name="e_0_energy">    -21.23493294 </i>
   </energy>
  </scstep>
  <scstep>
   <time name="dav">    1.35    1.35</time>
   <time name="total">    1.37    1.37</time>
   <energy>
    <i name="alphaZ">      4.69210702 </i>
    <i name="ewald">   1635.81909703 </i>
    <i name="hartreedc">  -2239.16861841 </i>
    <i name="XCdc">     13.31535463 </i>
    <i name="pawpsdc">   1851.02680066 </i>
    <i name="pawaedc">  -1818.62970003 </i>
    <i name="eentropy">     -0.00000000 </i>
    <i name="bandstr">   -172.45776313 </i>
    <i name="atom">    704.16778566 </i>
    <i name="e_fr_energy">    -21.23493658 </i>
    <i name="e_wo_entrp">    -21.23493658 </i>
    <i name="e_0_energy">    -21.23493658 </i>
   </energy>
  </scstep>
  <structure>
   <crystal>
    <varray name="basis" >
     <v>       3.48943300       0.00000000       0.00000000 </v>
     <v>       0.00000000       4.89289500      -0.00005300 </v>
     <v>       0.00000000       0.00000000      20.02439000 </v>
    </varray>
    <i name="volume">    341.88500651 </i>
    <varray name="rec_basis" >
     <v>       0.28657951       0.00000000       0.00000000 </v>
     <v>       0.00000000       0.20437798       0.00000000 </v>
     <v>       0.00000000       0.00000054       0.04993910 </v>
    </varray>
   </crystal>
   <varray name="positions" >
    <v>       0.50000000       0.90038294       0.55143040 </v>
    <v>       0.50000000       0.09961706       0.44856960 </v>
    <v>      -0.00000000       0.40037872       0.44856960 </v>
    <v>       0.00000000       0.59962128       0.55143040 </v>
   </varray>
  </structure>
  <varray name="forces" >
   <v>       0.00000023       0.01541805      -0.09624640 </v>
   <v>      -0.00000023      -0.01541805       0.09624640 </v>
   <v>      -0.00000002       0.01541147       0.09624530 </v>
   <v>       0.00000002      -0.01541147      -0.09624530 </v>
  </varray>
  <varray name="stress" >
   <v>     -26.47714356       0.00000021       0.00000198 </v>
   <v>       0.00000016      -9.34500198       0.00016500 </v>
   <v>       0.00000198       0.00016501      -1.97435880 </v>
  </varray>
  <energy>
   <i name="e_fr_energy">    -21.23493658 </i>
   <i name="e_wo_entrp">    -21.23493658 </i>
   <i name="e_0_energy">     -0.00000000 </i>
  </energy>
  <time name="totalsc">   11.47   11.49</time>
 </calculation>
 <calculation>
  <scstep>
   <time name="dav">    1.51    1.51</time>
   <time name="total">    1.62    1.63</time>
   <energy>
    <i name="alphaZ">      4.69210702 </i>
    <i name="ewald">   1640.80192538 </i>
    <i name="hartreedc">  -2243.84668621 </i>
    <i name="XCdc">     13.35011119 </i>
    <i name="pawpsdc">   1851.09368085 </i>
    <i name="pawaedc">  -1818.69645491 </i>
    <i name="eentropy">     -0.00000000 </i>
    <i name="bandstr">   -172.79815720 </i>
    <i name="atom">    704.16778566 </i>
    <i name="e_fr_energy">    -21.23568821 </i>
    <i name="e_wo_entrp">    -21.23568821 </i>
    <i name="e_0_energy">    -21.23568821 </i>
   </energy>
  </scstep>
  <scstep>
   <time name="dav">    1.89    1.89</time>
   <time name="total">    2.00    2.00</time>
   <energy>
    <i name="e_fr_energy">    -21.23633853 </i>
    <i name="e_wo_entrp">    -21.23633853 </i>
    <i name="e_0_energy">    -21.23633853 </i>
   </energy>
  </scstep>
  <scstep>
   <time name="dav">    2.06    2.07</time>
   <time name="total">    2.17    2.18</time>
   <energy>
    <i name="e_fr_energy">    -21.23632722 </i>
    <i name="e_wo_entrp">    -21.23632722 </i>
    <i name="e_0_energy">    -21.23632722 </i>
   </energy>
  </scstep>
  <scstep>
   <time name="dav">    1.80    1.80</time>
   <time name="total">    1.91    1.92</time>
   <energy>
    <i name="e_fr_energy">    -21.23632787 </i>
    <i name="e_wo_entrp">    -21.23632787 </i>
    <i name="e_0_energy">    -21.23632787 </i>
   </energy>
  </scstep>
  <scstep>
   <time name="dav">    1.30    1.30</time>
   <time name="total">    1.41    1.41</time>
   <energy>
    <i name="e_fr_energy">    -21.23632845 </i>
    <i name="e_wo_entrp">    -21.23632845 </i>
    <i name="e_0_energy">    -21.23632845 </i>
   </energy>
  </scstep>
  <scstep>
   <time name="dav">    1.24    1.24</time>
   <time name="total">    1.26    1.26</time>
   <energy>
    <i name="alphaZ">      4.69210702 </i>
    <i name="ewald">   1640.80192538 </i>
    <i name="hartreedc">  -2243.83893531 </i>
    <i name="XCdc">     13.35241431 </i>
    <i name="pawpsdc">   1867.02898829 </i>
    <i name="pawaedc">  -1834.63748374 </i>
    <i name="eentropy">     -0.00000000 </i>
    <i name="bandstr">   -172.80313113 </i>
    <i name="atom">    704.16778566 </i>
    <i name="e_fr_energy">    -21.23632953 </i>
    <i name="e_wo_entrp">    -21.23632953 </i>
    <i name="e_0_energy">    -21.23632953 </i>
   </energy>
  </scstep>
  <structure>
   <crystal>
    <varray name="basis" >
     <v>       3.48943300       0.00000000       0.00000000 </v>
     <v>       0.00000000       4.89289500      -0.00005300 </v>
     <v>       0.00000000       0.00000000      20.02439000 </v>
    </varray>
    <i name="volume">    341.88500651 </i>
    <varray name="rec_basis" >
     <v>       0.28657951       0.00000000       0.00000000 </v>
     <v>       0.00000000       0.20437798       0.00000000 </v>
     <v>       0.00000000       0.00000054       0.04993910 </v>
    </varray>
   </crystal>
   <varray name="positions" >
    <v>       0.49999999       0.90044231       0.55112282 </v>
    <v>       0.50000001       0.09955769       0.44887718 </v>
    <v>      -0.00000001       0.40043804       0.44887718 </v>
    <v>       0.00000001       0.59956196       0.55112282 </v>
   </varray>
  </structure>
  <varray name="forces" >
   <v>       0.00000036      -0.01285637      -0.01367735 </v>
   <v>      -0.00000036       0.01285637       0.01367735 </v>
   <v>       0.00000018      -0.01286300       0.01367814 </v>
   <v>      -0.00000018       0.01286300      -0.01367814 </v>
  </varray>
  <varray name="stress" >
   <v>     -26.30306661       0.00000338       0.00000053 </v>
   <v>       0.00000339      -9.08605078       0.00016148 </v>
   <v>       0.00000051       0.00016149      -0.36763632 </v>
  </varray>
  <energy>
   <i name="e_fr_energy">    -21.23632953 </i>
   <i name="e_wo_entrp">    -21.23632953 </i>
   <i name="e_0_energy">     -0.00000000 </i>
  </energy>
  <time name="totalsc">   11.21   11.23</time>
 </calculation>
 <calculation>
  <scstep>
   <time name="dav">    1.53    1.53</time>
   <time name="total">    1.64    1.64</time>
   <energy>
    <i name="alphaZ">      4.69210702 </i>
    <i name="ewald">   1641.57891897 </i>
    <i name="hartreedc">  -2244.55636608 </i>
    <i name="XCdc">     13.35771744 </i>
    <i name="pawpsdc">   1867.07662386 </i>
    <i name="pawaedc">  -1834.68500357 </i>
    <i name="eentropy">     -0.00000000 </i>
    <i name="bandstr">   -172.86812510 </i>
    <i name="atom">    704.16778566 </i>
    <i name="e_fr_energy">    -21.23634180 </i>
    <i name="e_wo_entrp">    -21.23634180 </i>
    <i name="e_0_energy">    -21.23634180 </i>
   </energy>
  </scstep>
  <scstep>
   <time name="dav">    1.90    1.90</time>
   <time name="total">    2.01    2.02</time>
   <energy>
    <i name="e_fr_energy">    -21.23635923 </i>
    <i name="e_wo_entrp">    -21.23635923 </i>
    <i name="e_0_energy">    -21.23635923 </i>
   </energy>
  </scstep>
  <scstep>
   <time name="dav">    1.30    1.30</time>
   <time name="total">    1.41    1.41</time>
   <energy>
    <i name="e_fr_energy">    -21.23635970 </i>
    <i name="e_wo_entrp">    -21.23635970 </i>
    <i name="e_0_energy">    -21.23635970 </i>
   </energy>
  </scstep>
  <scstep>
   <time name="dav">    1.35    1.35</time>
   <time name="total">    1.46    1.46</time>
   <energy>
    <i name="e_fr_energy">    -21.23636108 </i>
    <i name="e_wo_entrp">    -21.23636108 </i>
    <i name="e_0_energy">    -21.23636108 </i>
   </energy>
  </scstep>
  <scstep>
   <time name="dav">    1.22    1.22</time>
   <time name="total">    1.33    1.33</time>
   <energy>
    <i name="e_fr_energy">    -21.23636163 </i>
    <i name="e_wo_entrp">    -21.23636163 </i>
    <i name="e_0_energy">    -21.23636163 </i>
   </energy>
  </scstep>
  <scstep>
   <time name="dav">    1.22    1.22</time>
   <time name="total">    1.24    1.24</time>
   <energy>
    <i name="alphaZ">      4.69210702 </i>
    <i name="ewald">   1641.57891897 </i>
    <i name="hartreedc">  -2244.54127158 </i>
    <i name="XCdc">     13.35794642 </i>
    <i name="pawpsdc">   1869.53561901 </i>
    <i name="pawaedc">  -1837.14492810 </i>
    <i name="eentropy">     -0.00000000 </i>
    <i name="bandstr">   -172.88253945 </i>
    <i name="atom">    704.16778566 </i>
    <i name="e_fr_energy">    -21.23636206 </i>
    <i name="e_wo_entrp">    -21.23636206 </i>
    <i name="e_0_energy">    -21.23636206 </i>
   </energy>
  </scstep>
  <structure>
   <crystal>
    <varray name="basis" >
     <v>       3.48943300       0.00000000       0.00000000 </v>
     <v>       0.00000000       4.89289500      -0.00005300 </v>
     <v>       0.00000000       0.00000000      20.02439000 </v>
    </varray>
    <i name="volume">    341.88500651 </i>
    <varray name="rec_basis" >
     <v>       0.28657951       0.00000000       0.00000000 </v>
     <v>       0.00000000       0.20437798       0.00000000 </v>
     <v>       0.00000000       0.00000054       0.04993910 </v>
    </varray>
   </crystal>
   <varray name="positions" >
    <v>       0.49999999       0.90045156       0.55107490 </v>
    <v>       0.50000001       0.09954844       0.44892510 </v>
    <v>      -0.00000001       0.40044729       0.44892510 </v>
    <v>       0.00000001       0.59955271       0.55107490 </v>
   </varray>
  </structure>
  <varray name="forces" >
   <v>       0.00000040      -0.01727095      -0.00080746 </v>
   <v>      -0.00000040       0.01727095       0.00080746 </v>
   <v>       0.00000051      -0.01727776       0.00080874 </v>
   <v>      -0.00000051       0.01727776      -0.00080874 </v>
  </varray>
  <varray name="stress" >
   <v>     -26.26290121       0.00000513      -0.00000015 </v>
   <v>       0.00000515      -9.03768030       0.00016218 </v>
   <v>      -0.00000012       0.00016221      -0.09498157 </v>
  </varray>
  <energy>
   <i name="e_fr_energy">    -21.23636206 </i>
   <i name="e_wo_entrp">    -21.23636206 </i>
   <i name="e_0_energy">     -0.00000000 </i>
  </energy>
  <time name="totalsc">    9.93    9.94</time>
 </calculation>
 <calculation>
  <scstep>
   <time name="dav">    1.64    1.64</time>
   <time name="total">    1.75    1.76</time>
   <energy>
    <i name="alphaZ">      4.69210702 </i>
    <i name="ewald">   1641.88189706 </i>
    <i name="hartreedc">  -2244.79654683 </i>
    <i name="XCdc">     13.36238940 </i>
    <i name="pawpsdc">   1869.61327487 </i>
    <i name="pawaedc">  -1837.22256303 </i>
    <i name="eentropy">     -0.00000000 </i>
    <i name="bandstr">   -172.93473228 </i>
    <i name="atom">    704.16778566 </i>
    <i name="e_fr_energy">    -21.23638813 </i>
    <i name="e_wo_entrp">    -21.23638813 </i>
    <i name="e_0_energy">    -21.23638813 </i>
   </energy>
  </scstep>
  <scstep>
   <time name="dav">    1.92    1.92</time>
   <time name="total">    2.03    2.03</time>
   <energy>
    <i name="e_fr_energy">    -21.23639601 </i>
    <i name="e_wo_entrp">    -21.23639601 </i>
    <i name="e_0_energy">    -21.23639601 </i>
   </energy>
  </scstep>
  <scstep>
   <time name="dav">    1.26    1.26</time>
   <time name="total">    1.37    1.37</time>
   <energy>
    <i name="e_fr_energy">    -21.23639629 </i>
    <i name="e_wo_entrp">    -21.23639629 </i>
    <i name="e_0_energy">    -21.23639629 </i>
   </energy>
  </scstep>
  <scstep>
   <time name="dav">    1.23    1.23</time>
   <time name="total">    1.34    1.34</time>
   <energy>
    <i name="e_fr_energy">    -21.23639680 </i>
    <i name="e_wo_entrp">    -21.23639680 </i>
    <i name="e_0_energy">    -21.23639680 </i>
   </energy>
  </scstep>
  <scstep>
   <time name="dav">    1.18    1.18</time>
   <time name="total">    1.30    1.30</time>
   <energy>
    <i name="e_fr_energy">    -21.23639680 </i>
    <i name="e_wo_entrp">    -21.23639680 </i>
    <i name="e_0_energy">    -21.23639680 </i>
   </energy>
  </scstep>
  <scstep>
   <time name="dav">    1.15    1.15</time>
   <time name="total">    1.17    1.17</time>
   <energy>
    <i name="alphaZ">      4.69210702 </i>
    <i name="ewald">   1641.88189706 </i>
    <i name="hartreedc">  -2244.79199910 </i>
    <i name="XCdc">     13.36265382 </i>
    <i name="pawpsdc">   1871.74385348 </i>
    <i name="pawaedc">  -1839.35400457 </i>
    <i name="eentropy">     -0.00000000 </i>
    <i name="bandstr">   -172.93869023 </i>
    <i name="atom">    704.16778566 </i>
    <i name="e_fr_energy">    -21.23639685 </i>
    <i name="e_wo_entrp">    -21.23639685 </i>
    <i name="e_0_energy">    -21.23639685 </i>
   </energy>
  </scstep>
  <structure>
   <crystal>
    <varray name="basis" >
     <v>       3.48943300       0.00000000       0.00000000 </v>
     <v>       0.00000000       4.89289500      -0.00005300 </v>
     <v>       0.00000000       0.00000000      20.02439000 </v>
    </varray>
    <i name="volume">    341.88500651 </i>
    <varray name="rec_basis" >
     <v>       0.28657951       0.00000000       0.00000000 </v>
     <v>       0.00000000       0.20437798       0.00000000 </v>
     <v>       0.00000000       0.00000054       0.04993910 </v>
    </varray>
   </crystal>
   <varray name="positions" >
    <v>       0.50000000       0.90030077       0.55106221 </v>
    <v>       0.50000000       0.09969923       0.44893779 </v>
    <v>      -0.00000000       0.40029643       0.44893779 </v>
    <v>       0.00000000       0.59970357       0.55106221 </v>
   </varray>
  </structure>
  <varray name="forces" >
   <v>       0.00000014      -0.00420560      -0.00031787 </v>
   <v>      -0.00000014       0.00420560       0.00031787 </v>
   <v>       0.00000014      -0.00421077       0.00031819 </v>
   <v>      -0.00000014       0.00421077      -0.00031819 </v>
  </varray>
  <varray name="stress" >
   <v>     -26.22508922       0.00000202      -0.00000005 </v>
   <v>       0.00000204      -8.86101642       0.00014466 </v>
   <v>      -0.00000001       0.00014464      -0.08088159 </v>
  </varray>
  <energy>
   <i name="e_fr_energy">    -21.23639685 </i>
   <i name="e_wo_entrp">    -21.23639685 </i>
   <i name="e_0_energy">     -0.00000000 </i>
  </energy>
  <time name="totalsc">    9.73    9.74</time>
  <eigenvalues>
   <array>
    <dimension dim="1">band</dimension>
    <dimension dim="2">kpoint</dimension>
    <dimension dim="3">spin</dimension>
    <field>eigene</field>
    <field>occ</field>
    <set>
     <set comment="spin 1">
      <set comment="kpoint 1">
       <r>  -17.0525    1.0000 </r>
       <r>  -14.6723    1.0000 </r>
       <r>  -12.0612    1.0000 </r>
       <r>   -7.8956    1.0000 </r>
       <r>   -7.4617    1.0000 </r>
       <r>   -6.6515    1.0000 </r>
       <r>   -6.3499    1.0000 </r>
       <r>   -4.8276    1.0000 </r>
       <r>   -3.7778    1.0000 </r>
       <r>   -2.6357    1.0000 </r>
       <r>   -1.6349    0.0000 </r>
       <r>   -1.2172    0.0000 </r>
       <r>   -0.9503    0.0000 </r>
       <r>   -0.1183    0.0000 </r>
       <r>    1.9194    0.0000 </r>
       <r>    2.1245    0.0000 </r>
      </set>
      <set comment="kpoint 2">
       <r>  -17.0292    1.0000 </r>
       <r>  -14.6473    1.0000 </r>
       <r>  -12.0750    1.0000 </r>
       <r>   -7.8799    1.0000 </r>
       <r>   -7.5017    1.0000 </r>
       <r>   -6.6317    1.0000 </r>
       <r>   -6.4789    1.0000 </r>
       <r>   -4.9566    1.0000 </r>
       <r>   -3.7804    1.0000 </r>
       <r>   -2.6476    1.0000 </r>
       <r>   -1.4330    0.0000 </r>
       <r>   -1.1978    0.0000 </r>
       <r>   -0.7489    0.0000 </r>
       <r>   -0.2288    0.0000 </r>
       <r>    1.9422    0.0000 </r>
       <r>    2.1527    0.0000 </r>
      </set>
      <set comment="kpoint 3">
       <r>  -16.9592    1.0000 </r>
       <r>  -14.5724    1.0000 </r>
       <r>  -12.1204    1.0000 </r>
       <r>   -7.8338    1.0000 </r>
       <r>   -7.6387    1.0000 </r>
       <r>   -6.7999    1.0000 </r>
       <r>   -6.5725    1.0000 </r>
       <r>   -5.2420    1.0000 </r>
       <r>   -3.7934    1.0000 </r>
       <r>   -2.6895    1.0000 </r>
       <r>   -1.1408    0.0000 </r>
       <r>   -0.8876    0.0000 </r>
       <r>   -0.5024    0.0000 </r>
       <r>   -0.2471    0.0000 </r>
       <r>    1.9895    0.0000 </r>
       <r>    2.2352    0.0000 </r>
      </set>
      <set comment="kpoint 4">
       <r>  -16.8431    1.0000 </r>
       <r>  -14.4478    1.0000 </r>
       <r>  -12.2080    1.0000 </r>
       <r>   -7.9105    1.0000 </r>
       <r>   -7.7603    1.0000 </r>
       <r>   -7.1895    1.0000 </r>
       <r>   -6.4756    1.0000 </r>
       <r>   -5.5083    1.0000 </r>
       <r>   -3.8326    1.0000 </r>
       <r>   -2.7695    1.0000 </r>
       <r>   -1.0501    0.0000 </r>
       <r>   -0.8253    0.0000 </r>
       <r>   -0.1171    0.0000 </r>
       <r>    0.3345    0.0000 </r>
       <r>    1.7721    0.0000 </r>
       <r>    2.2257    0.0000 </r>
      </set>
      <set comment="kpoint 5">
       <r>  -16.6815    1.0000 </r>
       <r>  -14.2738    1.0000 </r>
       <r>  -12.3525    1.0000 </r>
       <r>   -8.3300    1.0000 </r>
       <r>   -7.6651    1.0000 </r>
       <r>   -7.5508    1.0000 </r>
       <r>   -6.3437    1.0000 </r>
       <r>   -5.6556    1.0000 </r>
       <r>   -3.9205    1.0000 </r>
       <r>   -2.8940    1.0000 </r>
       <r>   -1.0976    0.0000 </r>
       <r>   -0.9355    0.0000 </r>
       <r>    0.6487    0.0000 </r>
       <r>    0.7662    0.0000 </r>
       <r>    1.3081    0.0000 </r>
       <r>    2.3495    0.0000 </r>
      </set>
      <set comment="kpoint 6">
       <r>  -16.4753    1.0000 </r>
       <r>  -14.0506    1.0000 </r>
       <r>  -12.5669    1.0000 </r>
       <r>   -8.8589    1.0000 </r>
       <r>   -7.8251    1.0000 </r>
       <r>   -7.5580    1.0000 </r>
       <r>   -6.1813    1.0000 </r>
       <r>   -5.6807    1.0000 </r>
       <r>   -4.0714    1.0000 </r>
       <r>   -3.0673    1.0000 </r>
       <r>   -1.2531    0.0000 </r>
       <r>   -0.8217    0.0000 </r>
       <r>    0.4409    0.0000 </r>
       <r>    0.8622    0.0000 </r>
       <r>    1.5563    0.0000 </r>
       <r>    2.5585    0.0000 </r>
      </set>
      <set comment="kpoint 7">
       <r>  -16.2263    1.0000 </r>
       <r>  -13.7790    1.0000 </r>
       <r>  -12.8547    1.0000 </r>
       <r>   -9.4429    1.0000 </r>
       <r>   -7.9860    1.0000 </r>
       <r>   -7.4548    1.0000 </r>
       <r>   -5.9956    1.0000 </r>
       <r>   -5.6222    1.0000 </r>
       <r>   -4.2699    1.0000 </r>
       <r>   -3.2882    1.0000 </r>
       <r>   -1.2680    0.0000 </r>
       <r>   -0.7695    0.0000 </r>
       <r>   -0.0044    0.0000 </r>
       <r>    0.5397    0.0000 </r>
       <r>    1.6686    0.0000 </r>
       <r>    2.6999    0.0000 </r>
      </set>
      <set comment="kpoint 8">
       <r>  -15.9362    1.0000 </r>
       <r>  -13.4597    1.0000 </r>
       <r>  -13.2059    1.0000 </r>
       <r>  -10.0417    1.0000 </r>
       <r>   -8.0326    1.0000 </r>
       <r>   -7.3791    1.0000 </r>
       <r>   -5.7975    1.0000 </r>
       <r>   -5.5191    1.0000 </r>
       <r>   -4.4674    1.0000 </r>
       <r>   -3.5477    1.0000 </r>
       <r>   -1.1549    0.0000 </r>
       <r>   -0.8662    0.0000 </r>
       <r>   -0.4719    0.0000 </r>
       <r>    0.4535    0.0000 </r>
       <r>    1.3410    0.0000 </r>
       <r>    2.5788    0.0000 </r>
      </set>
      <set comment="kpoint 9">
       <r>  -15.6081    1.0000 </r>
       <r>  -13.6015    1.0000 </r>
       <r>  -13.0936    1.0000 </r>
       <r>  -10.6310    1.0000 </r>
       <r>   -7.9822    1.0000 </r>
       <r>   -7.3590    1.0000 </r>
       <r>   -5.6035    1.0000 </r>
       <r>   -5.4061    1.0000 </r>
       <r>   -4.6034    1.0000 </r>
       <r>   -3.8287    1.0000 </r>
       <r>   -1.0806    0.0000 </r>
       <r>   -0.9399    0.0000 </r>
       <r>   -0.8831    0.0000 </r>
       <r>    0.5955    0.0000 </r>
       <r>    0.9350    0.0000 </r>
       <r>    2.2959    0.0000 </r>
      </set>
      <set comment="kpoint 10">
       <r>  -15.2458    1.0000 </r>
       <r>  -14.0200    1.0000 </r>
       <r>  -12.6821    1.0000 </r>
       <r>  -11.1969    1.0000 </r>
       <r>   -7.8611    1.0000 </r>
       <r>   -7.4144    1.0000 </r>
       <r>   -5.4362    1.0000 </r>
       <r>   -5.3165    1.0000 </r>
       <r>   -4.6320    1.0000 </r>
       <r>   -4.1078    1.0000 </r>
       <r>   -1.2867    0.0000 </r>
       <r>   -1.1938    0.0000 </r>
       <r>   -0.6474    0.0000 </r>
       <r>    0.5118    0.0000 </r>
       <r>    0.8645    0.0000 </r>
       <r>    1.9416    0.0000 </r>
      </set>
      <set comment="kpoint 11">
       <r>  -14.8548    1.0000 </r>
       <r>  -14.4426    1.0000 </r>
       <r>  -12.2269    1.0000 </r>
       <r>  -11.7307    1.0000 </r>
       <r>   -7.7012    1.0000 </r>
       <r>   -7.5390    1.0000 </r>
       <r>   -5.3222    1.0000 </r>
       <r>   -5.2818    1.0000 </r>
       <r>   -4.5426    1.0000 </r>
       <r>   -4.3566    1.0000 </r>
       <r>   -1.3983    0.0000 </r>
       <r>   -1.3711    0.0000 </r>
       <r>   -0.2970    0.0000 </r>
       <r>    0.0949    0.0000 </r>
       <r>    1.1984    0.0000 </r>
       <r>    1.5656    0.0000 </r>
      </set>
      <set comment="kpoint 12">
       <r>  -17.0341    1.0000 </r>
       <r>  -14.7138    1.0000 </r>
       <r>  -12.0316    1.0000 </r>
       <r>   -8.1444    1.0000 </r>
       <r>   -7.2375    1.0000 </r>
       <r>   -6.5939    1.0000 </r>
       <r>   -6.3354    1.0000 </r>
       <r>   -4.8460    1.0000 </r>
       <r>   -3.7348    1.0000 </r>
       <r>   -2.7690    1.0000 </r>
       <r>   -1.6188    0.0000 </r>
       <r>   -1.0883    0.0000 </r>
       <r>   -0.9981    0.0000 </r>
       <r>   -0.1121    0.0000 </r>
       <r>    1.9619    0.0000 </r>
       <r>    2.1489    0.0000 </r>
      </set>
      <set comment="kpoint 13">
       <r>  -17.0108    1.0000 </r>
       <r>  -14.6892    1.0000 </r>
       <r>  -12.0446    1.0000 </r>
       <r>   -8.1418    1.0000 </r>
       <r>   -7.2637    1.0000 </r>
       <r>   -6.6093    1.0000 </r>
       <r>   -6.4292    1.0000 </r>
       <r>   -4.9774    1.0000 </r>
       <r>   -3.7396    1.0000 </r>
       <r>   -2.7778    1.0000 </r>
       <r>   -1.4178    0.0000 </r>
       <r>   -1.0722    0.0000 </r>
       <r>   -0.7968    0.0000 </r>
       <r>   -0.2157    0.0000 </r>
       <r>    1.9837    0.0000 </r>
       <r>    2.1773    0.0000 </r>
      </set>
      <set comment="kpoint 14">
       <r>  -16.9409    1.0000 </r>
       <r>  -14.6153    1.0000 </r>
       <r>  -12.0874    1.0000 </r>
       <r>   -8.1478    1.0000 </r>
       <r>   -7.3479    1.0000 </r>
       <r>   -6.8403    1.0000 </r>
       <r>   -6.4610    1.0000 </r>
       <r>   -5.2670    1.0000 </r>
       <r>   -3.7596    1.0000 </r>
       <r>   -2.8097    1.0000 </r>
       <r>   -1.0277    0.0000 </r>
       <r>   -0.8721    0.0000 </r>
       <r>   -0.5011    0.0000 </r>
       <r>   -0.2647    0.0000 </r>
       <r>    2.0157    0.0000 </r>
       <r>    2.2249    0.0000 </r>
      </set>
      <set comment="kpoint 15">
       <r>  -16.8249    1.0000 </r>
       <r>  -14.4927    1.0000 </r>
       <r>  -12.1707    1.0000 </r>
       <r>   -8.2226    1.0000 </r>
       <r>   -7.4736    1.0000 </r>
       <r>   -7.2181    1.0000 </r>
       <r>   -6.3788    1.0000 </r>
       <r>   -5.5345    1.0000 </r>
       <r>   -3.8106    1.0000 </r>
       <r>   -2.8741    1.0000 </r>
       <r>   -0.9507    0.0000 </r>
       <r>   -0.7912    0.0000 </r>
       <r>   -0.1090    0.0000 </r>
       <r>    0.3158    0.0000 </r>
       <r>    1.6860    0.0000 </r>
       <r>    2.2190    0.0000 </r>
      </set>
      <set comment="kpoint 16">
       <r>  -16.6634    1.0000 </r>
       <r>  -14.3221    1.0000 </r>
       <r>  -12.3090    1.0000 </r>
       <r>   -8.4827    1.0000 </r>
       <r>   -7.5768    1.0000 </r>
       <r>   -7.5430    1.0000 </r>
       <r>   -6.2545    1.0000 </r>
       <r>   -5.6801    1.0000 </r>
       <r>   -3.9123    1.0000 </r>
       <r>   -2.9798    1.0000 </r>
       <r>   -1.0405    0.0000 </r>
       <r>   -0.8541    0.0000 </r>
       <r>    0.6644    0.0000 </r>
       <r>    0.7269    0.0000 </r>
       <r>    1.2569    0.0000 </r>
       <r>    2.3738    0.0000 </r>
      </set>
      <set comment="kpoint 17">
       <r>  -16.4576    1.0000 </r>
       <r>  -14.1058    1.0000 </r>
       <r>  -12.5141    1.0000 </r>
       <r>   -8.9387    1.0000 </r>
       <r>   -7.8503    1.0000 </r>
       <r>   -7.5130    1.0000 </r>
       <r>   -6.1002    1.0000 </r>
       <r>   -5.7071    1.0000 </r>
       <r>   -4.0725    1.0000 </r>
       <r>   -3.1330    1.0000 </r>
       <r>   -1.1761    0.0000 </r>
       <r>   -0.7602    0.0000 </r>
       <r>    0.4915    0.0000 </r>
       <r>    0.6974    0.0000 </r>
       <r>    1.6658    0.0000 </r>
       <r>    2.5311    0.0000 </r>
      </set>
      <set comment="kpoint 18">
       <r>  -16.2089    1.0000 </r>
       <r>  -13.8503    1.0000 </r>
       <r>  -12.7842    1.0000 </r>
       <r>   -9.4928    1.0000 </r>
       <r>   -8.0100    1.0000 </r>
       <r>   -7.4390    1.0000 </r>
       <r>   -5.9257    1.0000 </r>
       <r>   -5.6613    1.0000 </r>
       <r>   -4.2671    1.0000 </r>
       <r>   -3.3338    1.0000 </r>
       <r>   -1.1794    0.0000 </r>
       <r>   -0.7337    0.0000 </r>
       <r>    0.0591    0.0000 </r>
       <r>    0.3977    0.0000 </r>
       <r>    1.8296    0.0000 </r>
       <r>    2.6576    0.0000 </r>
      </set>
      <set comment="kpoint 19">
       <r>  -15.9195    1.0000 </r>
       <r>  -13.5963    1.0000 </r>
       <r>  -13.0695    1.0000 </r>
       <r>  -10.0775    1.0000 </r>
       <r>   -8.0544    1.0000 </r>
       <r>   -7.3720    1.0000 </r>
       <r>   -5.7447    1.0000 </r>
       <r>   -5.5873    1.0000 </r>
       <r>   -4.4406    1.0000 </r>
       <r>   -3.5717    1.0000 </r>
       <r>   -1.0690    0.0000 </r>
       <r>   -0.8639    0.0000 </r>
       <r>   -0.3993    0.0000 </r>
       <r>    0.3246    0.0000 </r>
       <r>    1.5387    0.0000 </r>
       <r>    2.5339    0.0000 </r>
      </set>
      <set comment="kpoint 20">
       <r>  -15.5924    1.0000 </r>
       <r>  -13.6593    1.0000 </r>
       <r>  -13.0364    1.0000 </r>
       <r>  -10.6589    1.0000 </r>
       <r>   -8.0003    1.0000 </r>
       <r>   -7.3532    1.0000 </r>
       <r>   -5.5778    1.0000 </r>
       <r>   -5.5163    1.0000 </r>
       <r>   -4.5332    1.0000 </r>
       <r>   -3.8267    1.0000 </r>
       <r>   -1.0984    0.0000 </r>
       <r>   -0.9589    0.0000 </r>
       <r>   -0.7115    0.0000 </r>
       <r>    0.4353    0.0000 </r>
       <r>    1.1896    0.0000 </r>
       <r>    2.2549    0.0000 </r>
      </set>
      <set comment="kpoint 21">
       <r>  -15.2318    1.0000 </r>
       <r>  -14.0278    1.0000 </r>
       <r>  -12.6759    1.0000 </r>
       <r>  -11.2189    1.0000 </r>
       <r>   -7.8742    1.0000 </r>
       <r>   -7.4103    1.0000 </r>
       <r>   -5.4554    1.0000 </r>
       <r>   -5.4524    1.0000 </r>
       <r>   -4.5231    1.0000 </r>
       <r>   -4.0713    1.0000 </r>
       <r>   -1.3075    0.0000 </r>
       <r>   -1.1904    0.0000 </r>
       <r>   -0.5139    0.0000 </r>
       <r>    0.4666    0.0000 </r>
       <r>    1.0103    0.0000 </r>
       <r>    1.9089    0.0000 </r>
      </set>
      <set comment="kpoint 22">
       <r>  -14.8436    1.0000 </r>
       <r>  -14.4371    1.0000 </r>
       <r>  -12.2356    1.0000 </r>
       <r>  -11.7469    1.0000 </r>
       <r>   -7.7081    1.0000 </r>
       <r>   -7.5396    1.0000 </r>
       <r>   -5.4057    1.0000 </r>
       <r>   -5.3944    1.0000 </r>
       <r>   -4.4313    1.0000 </r>
       <r>   -4.2783    1.0000 </r>
       <r>   -1.4121    0.0000 </r>
       <r>   -1.3735    0.0000 </r>
       <r>   -0.1828    0.0000 </r>
       <r>    0.1775    0.0000 </r>
       <r>    1.2148    0.0000 </r>
       <r>    1.5481    0.0000 </r>
      </set>
      <set comment="kpoint 23">
       <r>  -14.8436    1.0000 </r>
       <r>  -14.4371    1.0000 </r>
       <r>  -12.2356    1.0000 </r>
       <r>  -11.7469    1.0000 </r>
       <r>   -7.7081    1.0000 </r>
       <r>   -7.5396    1.0000 </r>
       <r>   -5.4057    1.0000 </r>
       <r>   -5.3944    1.0000 </r>
       <r>   -4.4313    1.0000 </r>
       <r>   -4.2783    1.0000 </r>
       <r>   -1.4121    0.0000 </r>
       <r>   -1.3735    0.0000 </r>
       <r>   -0.1828    0.0000 </r>
       <r>    0.1775    0.0000 </r>
       <r>    1.2148    0.0000 </r>
       <r>    1.5481    0.0000 </r>
      </set>
      <set comment="kpoint 24">
       <r>  -15.2318    1.0000 </r>
       <r>  -14.0278    1.0000 </r>
       <r>  -12.6759    1.0000 </r>
       <r>  -11.2189    1.0000 </r>
       <r>   -7.8742    1.0000 </r>
       <r>   -7.4103    1.0000 </r>
       <r>   -5.4554    1.0000 </r>
       <r>   -5.4524    1.0000 </r>
       <r>   -4.5231    1.0000 </r>
       <r>   -4.0713    1.0000 </r>
       <r>   -1.3075    0.0000 </r>
       <r>   -1.1904    0.0000 </r>
       <r>   -0.5139    0.0000 </r>
       <r>    0.4666    0.0000 </r>
       <r>    1.0103    0.0000 </r>
       <r>    1.9089    0.0000 </r>
      </set>
      <set comment="kpoint 25">
       <r>  -15.5924    1.0000 </r>
       <r>  -13.6593    1.0000 </r>
       <r>  -13.0364    1.0000 </r>
       <r>  -10.6589    1.0000 </r>
       <r>   -8.0003    1.0000 </r>
       <r>   -7.3532    1.0000 </r>
       <r>   -5.5778    1.0000 </r>
       <r>   -5.5163    1.0000 </r>
       <r>   -4.5332    1.0000 </r>
       <r>   -3.8267    1.0000 </r>
       <r>   -1.0984    0.0000 </r>
       <r>   -0.9589    0.0000 </r>
       <r>   -0.7115    0.0000 </r>
       <r>    0.4353    0.0000 </r>
       <r>    1.1896    0.0000 </r>
       <r>    2.2549    0.0000 </r>
      </set>
      <set comment="kpoint 26">
       <r>  -15.9195    1.0000 </r>
       <r>  -13.5963    1.0000 </r>
       <r>  -13.0695    1.0000 </r>
       <r>  -10.0775    1.0000 </r>
       <r>   -8.0544    1.0000 </r>
       <r>   -7.3720    1.0000 </r>
       <r>   -5.7447    1.0000 </r>
       <r>   -5.5873    1.0000 </r>
       <r>   -4.4406    1.0000 </r>
       <r>   -3.5717    1.0000 </r>
       <r>   -1.0690    0.0000 </r>
       <r>   -0.8639    0.0000 </r>
       <r>   -0.3993    0.0000 </r>
       <r>    0.3246    0.0000 </r>
       <r>    1.5387    0.0000 </r>
       <r>    2.5339    0.0000 </r>
      </set>
      <set comment="kpoint 27">
       <r>  -16.2089    1.0000 </r>
       <r>  -13.8503    1.0000 </r>
       <r>  -12.7842    1.0000 </r>
       <r>   -9.4928    1.0000 </r>
       <r>   -8.0100    1.0000 </r>
       <r>   -7.4390    1.0000 </r>
       <r>   -5.9257    1.0000 </r>
       <r>   -5.6613    1.0000 </r>
       <r>   -4.2671    1.0000 </r>
       <r>   -3.3338    1.0000 </r>
       <r>   -1.1794    0.0000 </r>
       <r>   -0.7337    0.0000 </r>
       <r>    0.0591    0.0000 </r>
       <r>    0.3977    0.0000 </r>
       <r>    1.8296    0.0000 </r>
       <r>    2.6576    0.0000 </r>
      </set>
      <set comment="kpoint 28">
       <r>  -16.4576    1.0000 </r>
       <r>  -14.1058    1.0000 </r>
       <r>  -12.5141    1.0000 </r>
       <r>   -8.9387    1.0000 </r>
       <r>   -7.8503    1.0000 </r>
       <r>   -7.5130    1.0000 </r>
       <r>   -6.1002    1.0000 </r>
       <r>   -5.7071    1.0000 </r>
       <r>   -4.0725    1.0000 </r>
       <r>   -3.1330    1.0000 </r>
       <r>   -1.1761    0.0000 </r>
       <r>   -0.7602    0.0000 </r>
       <r>    0.4915    0.0000 </r>
       <r>    0.6974    0.0000 </r>
       <r>    1.6658    0.0000 </r>
       <r>    2.5309    0.0000 </r>
      </set>
      <set comment="kpoint 29">
       <r>  -16.6634    1.0000 </r>
       <r>  -14.3221    1.0000 </r>
       <r>  -12.3090    1.0000 </r>
       <r>   -8.4827    1.0000 </r>
       <r>   -7.5768    1.0000 </r>
       <r>   -7.5430    1.0000 </r>
       <r>   -6.2545    1.0000 </r>
       <r>   -5.6801    1.0000 </r>
       <r>   -3.9123    1.0000 </r>
       <r>   -2.9798    1.0000 </r>
       <r>   -1.0405    0.0000 </r>
       <r>   -0.8541    0.0000 </r>
       <r>    0.6644    0.0000 </r>
[...]
       <r>    2.6129    0.0000 </r>
       <r>    2.9109    0.0000 </r>
      </set>
      <set comment="kpoint 153">
       <r>  -15.4306    1.0000 </r>
       <r>  -15.2106    1.0000 </r>
       <r>  -11.2971    1.0000 </r>
       <r>  -10.9943    1.0000 </r>
       <r>   -7.9588    1.0000 </r>
       <r>   -7.8210    1.0000 </r>
       <r>   -5.5394    1.0000 </r>
       <r>   -5.3595    1.0000 </r>
       <r>   -4.0245    1.0000 </r>
       <r>   -3.9791    1.0000 </r>
       <r>   -0.3795    0.0000 </r>
       <r>   -0.1246    0.0000 </r>
       <r>    0.7289    0.0000 </r>
       <r>    0.9592    0.0000 </r>
       <r>    2.3989    0.0000 </r>
       <r>    2.6786    0.0000 </r>
      </set>
      <set comment="kpoint 154">
       <r>  -15.6583    1.0000 </r>
       <r>  -15.4321    1.0000 </r>
       <r>  -11.0744    1.0000 </r>
       <r>  -10.7521    1.0000 </r>
       <r>   -7.7692    1.0000 </r>
       <r>   -7.6362    1.0000 </r>
       <r>   -5.3322    1.0000 </r>
       <r>   -5.1163    1.0000 </r>
       <r>   -4.0943    1.0000 </r>
       <r>   -4.0513    1.0000 </r>
       <r>   -0.3673    0.0000 </r>
       <r>   -0.1911    0.0000 </r>
       <r>    0.8749    0.0000 </r>
       <r>    1.1498    0.0000 </r>
       <r>    1.8625    0.0000 </r>
       <r>    2.0915    0.0000 </r>
      </set>
      <set comment="kpoint 155">
       <r>  -15.8509    1.0000 </r>
       <r>  -15.6213    1.0000 </r>
       <r>  -10.9408    1.0000 </r>
       <r>  -10.6103    1.0000 </r>
       <r>   -7.4196    1.0000 </r>
       <r>   -7.2836    1.0000 </r>
       <r>   -5.2415    1.0000 </r>
       <r>   -4.9759    1.0000 </r>
       <r>   -4.1671    1.0000 </r>
       <r>   -4.0065    1.0000 </r>
       <r>   -0.3322    0.0000 </r>
       <r>   -0.2525    0.0000 </r>
       <r>    0.9288    0.0000 </r>
       <r>    1.1846    0.0000 </r>
       <r>    1.2830    0.0000 </r>
       <r>    1.4054    0.0000 </r>
      </set>
      <set comment="kpoint 156">
       <r>  -16.0040    1.0000 </r>
       <r>  -15.7725    1.0000 </r>
       <r>  -10.8787    1.0000 </r>
       <r>  -10.5474    1.0000 </r>
       <r>   -6.9491    1.0000 </r>
       <r>   -6.8049    1.0000 </r>
       <r>   -5.2337    1.0000 </r>
       <r>   -4.9315    1.0000 </r>
       <r>   -4.2177    1.0000 </r>
       <r>   -3.9484    1.0000 </r>
       <r>   -0.4111    0.0000 </r>
       <r>   -0.4015    0.0000 </r>
       <r>    0.6577    0.0000 </r>
       <r>    0.7096    0.0000 </r>
       <r>    1.1101    0.0000 </r>
       <r>    1.3290    0.0000 </r>
      </set>
      <set comment="kpoint 157">
       <r>  -16.1149    1.0000 </r>
       <r>  -15.8824    1.0000 </r>
       <r>  -10.8583    1.0000 </r>
       <r>  -10.5288    1.0000 </r>
       <r>   -6.4237    1.0000 </r>
       <r>   -6.2718    1.0000 </r>
       <r>   -5.2605    1.0000 </r>
       <r>   -4.9411    1.0000 </r>
       <r>   -4.2980    1.0000 </r>
       <r>   -3.9475    1.0000 </r>
       <r>   -0.7917    0.0000 </r>
       <r>   -0.7443    0.0000 </r>
       <r>    0.4773    0.0000 </r>
       <r>    0.6153    0.0000 </r>
       <r>    1.0743    0.0000 </r>
       <r>    1.3392    0.0000 </r>
      </set>
      <set comment="kpoint 158">
       <r>  -16.1820    1.0000 </r>
       <r>  -15.9489    1.0000 </r>
       <r>  -10.8553    1.0000 </r>
       <r>  -10.5277    1.0000 </r>
       <r>   -5.9447    1.0000 </r>
       <r>   -5.7905    1.0000 </r>
       <r>   -5.2962    1.0000 </r>
       <r>   -4.9681    1.0000 </r>
       <r>   -4.4321    1.0000 </r>
       <r>   -4.0280    1.0000 </r>
       <r>   -1.1710    0.0000 </r>
       <r>   -1.1161    0.0000 </r>
       <r>    0.4923    0.0000 </r>
       <r>    0.7083    0.0000 </r>
       <r>    1.0495    0.0000 </r>
       <r>    1.3331    0.0000 </r>
      </set>
     </set>
    </set>
   </array>
  </eigenvalues>
  <separator name="orbital magnetization" >
   <v name="MAGDIPOLOUT">      0.00000000      0.00000000      0.00000000</v>
  </separator>
  <dos>
   <i name="efermi">     -2.53335347 </i>
   <total>
    <array>
     <dimension dim="1">gridpoints</dimension>
     <dimension dim="2">spin</dimension>
     <field>energy</field>
     <field>total</field>
     <field>integrated</field>
     <set>
      <set comment="spin 1">
       <r>   -18.0602     0.0000     0.0000 </r>
       <r>   -17.9863     0.0000     0.0000 </r>
       <r>   -17.9124     0.0000     0.0000 </r>
       <r>   -17.8385     0.0000     0.0000 </r>
       <r>   -17.7646     0.0000     0.0000 </r>
       <r>   -17.6907     0.0000     0.0000 </r>
       <r>   -17.6168     0.0000     0.0000 </r>
       <r>   -17.5429     0.0000     0.0000 </r>
       <r>   -17.4690     0.0000     0.0000 </r>
       <r>   -17.3951     0.0000     0.0000 </r>
       <r>   -17.3212     0.0000     0.0000 </r>
       <r>   -17.2474     0.0000     0.0000 </r>
       <r>   -17.1735     0.0000     0.0000 </r>
       <r>   -17.0996     0.0000     0.0000 </r>
       <r>   -17.0257     0.3608     0.0267 </r>
       <r>   -16.9518     0.9851     0.0995 </r>
       <r>   -16.8779     0.8984     0.1658 </r>
       <r>   -16.8040     1.0075     0.2403 </r>
       <r>   -16.7301     1.0409     0.3172 </r>
       <r>   -16.6562     1.1132     0.3995 </r>
       <r>   -16.5823     0.8543     0.4626 </r>
       <r>   -16.5084     1.0253     0.5384 </r>
       <r>   -16.4345     0.7174     0.5914 </r>
       <r>   -16.3606     1.5324     0.7046 </r>
       <r>   -16.2867     0.6835     0.7551 </r>
       <r>   -16.2128     0.9059     0.8220 </r>
       <r>   -16.1390     1.4867     0.9319 </r>
       <r>   -16.0651     0.7431     0.9868 </r>
       <r>   -15.9912     0.9475     1.0568 </r>
       <r>   -15.9173     1.2530     1.1494 </r>
       <r>   -15.8434     1.4053     1.2533 </r>
       <r>   -15.7695     0.9910     1.3265 </r>
       <r>   -15.6956     0.6086     1.3715 </r>
       <r>   -15.6217     1.5180     1.4836 </r>
       <r>   -15.5478     1.0287     1.5597 </r>
       <r>   -15.4739     1.0352     1.6362 </r>
       <r>   -15.4000     1.3797     1.7381 </r>
       <r>   -15.3261     1.3081     1.8348 </r>
       <r>   -15.2522     0.4533     1.8683 </r>
       <r>   -15.1783     2.3029     2.0384 </r>
       <r>   -15.1044     1.3255     2.1364 </r>
       <r>   -15.0306     0.7452     2.1914 </r>
       <r>   -14.9567     1.4718     2.3002 </r>
       <r>   -14.8828     1.5631     2.4157 </r>
       <r>   -14.8089     1.4214     2.5207 </r>
       <r>   -14.7350     1.8477     2.6573 </r>
       <r>   -14.6611     2.1882     2.8190 </r>
       <r>   -14.5872     1.7237     2.9463 </r>
       <r>   -14.5133     1.1940     3.0345 </r>
       <r>   -14.4394     2.4000     3.2119 </r>
       <r>   -14.3655     2.5051     3.3970 </r>
       <r>   -14.2916     1.0301     3.4731 </r>
       <r>   -14.2177     1.4454     3.5799 </r>
       <r>   -14.1438     0.4929     3.6163 </r>
       <r>   -14.0699     0.9513     3.6866 </r>
       <r>   -13.9961     1.6427     3.8080 </r>
       <r>   -13.9222     0.3622     3.8348 </r>
       <r>   -13.8483     0.1957     3.8493 </r>
       <r>   -13.7744     0.9099     3.9165 </r>
       <r>   -13.7005     0.0997     3.9239 </r>
       <r>   -13.6266     0.3517     3.9498 </r>
       <r>   -13.5527     0.5065     3.9873 </r>
       <r>   -13.4788     0.0156     3.9884 </r>
       <r>   -13.4049     0.1567     4.0000 </r>
       <r>   -13.3310     0.0000     4.0000 </r>
       <r>   -13.2571     0.0000     4.0000 </r>
       <r>   -13.1832     0.1625     4.0120 </r>
       <r>   -13.1093     0.0330     4.0144 </r>
       <r>   -13.0354     0.6698     4.0639 </r>
       <r>   -12.9615     0.1658     4.0762 </r>
       <r>   -12.8877     0.3068     4.0989 </r>
       <r>   -12.8138     0.5572     4.1400 </r>
       <r>   -12.7399     0.5011     4.1771 </r>
       <r>   -12.6660     0.6712     4.2267 </r>
       <r>   -12.5921     1.3573     4.3270 </r>
       <r>   -12.5182     1.0299     4.4031 </r>
       <r>   -12.4443     0.4958     4.4397 </r>
       <r>   -12.3704     0.9614     4.5107 </r>
       <r>   -12.2965     2.7931     4.7171 </r>
       <r>   -12.2226     1.3673     4.8182 </r>
       <r>   -12.1487     2.1442     4.9766 </r>
       <r>   -12.0748     1.6548     5.0989 </r>
       <r>   -12.0009     1.8591     5.2362 </r>
       <r>   -11.9270     1.5232     5.3488 </r>
       <r>   -11.8531     1.8670     5.4868 </r>
       <r>   -11.7793     1.6381     5.6078 </r>
       <r>   -11.7054     0.8085     5.6675 </r>
       <r>   -11.6315     1.8200     5.8020 </r>
       <r>   -11.5576     0.9698     5.8737 </r>
       <r>   -11.4837     0.6974     5.9252 </r>
       <r>   -11.4098     1.2263     6.0158 </r>
       <r>   -11.3359     1.0420     6.0928 </r>
       <r>   -11.2620     1.0321     6.1691 </r>
       <r>   -11.1881     1.2229     6.2595 </r>
       <r>   -11.1142     1.1260     6.3427 </r>
       <r>   -11.0403     0.7799     6.4003 </r>
       <r>   -10.9664     0.6012     6.4447 </r>
       <r>   -10.8925     0.4210     6.4758 </r>
       <r>   -10.8186     1.4717     6.5846 </r>
       <r>   -10.7447     0.7079     6.6369 </r>
       <r>   -10.6709     0.6929     6.6881 </r>
       <r>   -10.5970     0.7668     6.7447 </r>
       <r>   -10.5231     1.2807     6.8394 </r>
       <r>   -10.4492     0.3315     6.8639 </r>
       <r>   -10.3753     0.6175     6.9095 </r>
       <r>   -10.3014     0.4086     6.9397 </r>
       <r>   -10.2275     0.3421     6.9650 </r>
       <r>   -10.1536     1.4426     7.0716 </r>
       <r>   -10.0797     0.7474     7.1268 </r>
       <r>   -10.0058     0.5600     7.1682 </r>
       <r>    -9.9319     0.0028     7.1684 </r>
       <r>    -9.8580     0.3924     7.1974 </r>
       <r>    -9.7841     1.1496     7.2823 </r>
       <r>    -9.7102     0.6875     7.3331 </r>
       <r>    -9.6363     0.1449     7.3438 </r>
       <r>    -9.5625     0.2024     7.3588 </r>
       <r>    -9.4886     0.5523     7.3996 </r>
       <r>    -9.4147     0.8176     7.4600 </r>
       <r>    -9.3408     1.0341     7.5364 </r>
       <r>    -9.2669     0.0010     7.5365 </r>
       <r>    -9.1930     0.0006     7.5366 </r>
       <r>    -9.1191     0.6714     7.5862 </r>
       <r>    -9.0452     0.0255     7.5880 </r>
       <r>    -8.9713     0.6970     7.6396 </r>
       <r>    -8.8974     0.8395     7.7016 </r>
       <r>    -8.8235     0.1762     7.7146 </r>
       <r>    -8.7496     0.3390     7.7397 </r>
       <r>    -8.6757     0.0004     7.7397 </r>
       <r>    -8.6018     0.2858     7.7608 </r>
       <r>    -8.5279     0.8467     7.8234 </r>
       <r>    -8.4541     0.4068     7.8534 </r>
       <r>    -8.3802     0.0074     7.8540 </r>
       <r>    -8.3063     0.1638     7.8661 </r>
       <r>    -8.2324     0.0919     7.8729 </r>
       <r>    -8.1585     1.1385     7.9570 </r>
       <r>    -8.0846     3.2423     8.1966 </r>
       <r>    -8.0107     2.4095     8.3746 </r>
       <r>    -7.9368     2.8433     8.5847 </r>
       <r>    -7.8629     3.0590     8.8108 </r>
       <r>    -7.7890     1.9206     8.9527 </r>
       <r>    -7.7151     1.6016     9.0710 </r>
       <r>    -7.6412     3.2250     9.3093 </r>
       <r>    -7.5673     1.6631     9.4322 </r>
       <r>    -7.4934     4.3870     9.7564 </r>
       <r>    -7.4195     2.9508     9.9744 </r>
       <r>    -7.3457     6.2573    10.4368 </r>
       <r>    -7.2718     3.4587    10.6924 </r>
       <r>    -7.1979     1.5553    10.8073 </r>
       <r>    -7.1240     1.3959    10.9105 </r>
       <r>    -7.0501     0.6937    10.9617 </r>
       <r>    -6.9762     0.7356    11.0161 </r>
       <r>    -6.9023     0.8067    11.0757 </r>
       <r>    -6.8284     1.3850    11.1780 </r>
       <r>    -6.7545     1.2454    11.2701 </r>
       <r>    -6.6806     1.5158    11.3821 </r>
       <r>    -6.6067     1.6377    11.5031 </r>
       <r>    -6.5328     2.3158    11.6742 </r>
       <r>    -6.4589     1.6072    11.7930 </r>
       <r>    -6.3850     1.8026    11.9262 </r>
       <r>    -6.3111     1.9235    12.0683 </r>
       <r>    -6.2373     2.8701    12.2804 </r>
       <r>    -6.1634     2.2677    12.4479 </r>
       <r>    -6.0895     1.4419    12.5545 </r>
       <r>    -6.0156     2.5018    12.7394 </r>
       <r>    -5.9417     2.5028    12.9243 </r>
       <r>    -5.8678     1.9747    13.0702 </r>
       <r>    -5.7939     3.3849    13.3203 </r>
       <r>    -5.7200     4.8253    13.6769 </r>
       <r>    -5.6461     4.7713    14.0295 </r>
       <r>    -5.5722     2.9558    14.2479 </r>
       <r>    -5.4983     5.2732    14.6375 </r>
       <r>    -5.4244     2.6950    14.8367 </r>
       <r>    -5.3505     2.8075    15.0441 </r>
       <r>    -5.2766     2.8526    15.2549 </r>
       <r>    -5.2027     2.5797    15.4455 </r>
       <r>    -5.1289     0.7876    15.5037 </r>
       <r>    -5.0550     0.8659    15.5677 </r>
       <r>    -4.9811     1.9602    15.7126 </r>
       <r>    -4.9072     2.1229    15.8694 </r>
       <r>    -4.8333     0.6576    15.9180 </r>
       <r>    -4.7594     0.4224    15.9493 </r>
       <r>    -4.6855     0.6758    15.9992 </r>
       <r>    -4.6116     0.4513    16.0325 </r>
       <r>    -4.5377     1.0726    16.1118 </r>
       <r>    -4.4638     0.8994    16.1783 </r>
       <r>    -4.3899     1.6887    16.3031 </r>
       <r>    -4.3160     0.9496    16.3732 </r>
       <r>    -4.2421     2.7779    16.5785 </r>
       <r>    -4.1682     2.8340    16.7879 </r>
       <r>    -4.0943     3.0007    17.0096 </r>
       <r>    -4.0205     4.7658    17.3618 </r>
       <r>    -3.9466     2.7666    17.5662 </r>
       <r>    -3.8727     3.4363    17.8202 </r>
       <r>    -3.7988     5.2523    18.2083 </r>
       <r>    -3.7249     4.5662    18.5457 </r>
       <r>    -3.6510     4.3450    18.8667 </r>
       <r>    -3.5771     3.3442    19.1139 </r>
       <r>    -3.5032     3.4996    19.3725 </r>
       <r>    -3.4293     2.8344    19.5819 </r>
       <r>    -3.3554     0.4385    19.6143 </r>
       <r>    -3.2815     0.7738    19.6715 </r>
       <r>    -3.2076     0.1784    19.6847 </r>
       <r>    -3.1337     0.5699    19.7268 </r>
       <r>    -3.0598     1.2873    19.8219 </r>
       <r>    -2.9859     0.2041    19.8370 </r>
       <r>    -2.9121     0.2485    19.8553 </r>
       <r>    -2.8382     0.5027    19.8925 </r>
       <r>    -2.7643     0.8422    19.9547 </r>
       <r>    -2.6904     0.2649    19.9743 </r>
       <r>    -2.6165     0.3380    19.9993 </r>
       <r>    -2.5426     0.0099    20.0000 </r>
       <r>    -2.4687     0.0000    20.0000 </r>
       <r>    -2.3948     0.0000    20.0000 </r>
       <r>    -2.3209     0.0000    20.0000 </r>
       <r>    -2.2470     0.0000    20.0000 </r>
       <r>    -2.1731     0.0000    20.0000 </r>
       <r>    -2.0992     0.0000    20.0000 </r>
       <r>    -2.0253     0.0000    20.0000 </r>
       <r>    -1.9514     0.0000    20.0000 </r>
       <r>    -1.8776     0.0000    20.0000 </r>
       <r>    -1.8037     0.0000    20.0000 </r>
       <r>    -1.7298     0.0000    20.0000 </r>
       <r>    -1.6559     0.0067    20.0005 </r>
       <r>    -1.5820     0.2900    20.0219 </r>
       <r>    -1.5081     0.1849    20.0356 </r>
       <r>    -1.4342     0.6205    20.0814 </r>
       <r>    -1.3603     2.3019    20.2515 </r>
       <r>    -1.2864     2.9151    20.4669 </r>
       <r>    -1.2125     2.1002    20.6221 </r>
       <r>    -1.1386     3.6768    20.8938 </r>
       <r>    -1.0647     3.6397    21.1628 </r>
       <r>    -0.9908     1.2412    21.2545 </r>
       <r>    -0.9169     3.2489    21.4946 </r>
       <r>    -0.8430     4.0425    21.7933 </r>
       <r>    -0.7692     3.7890    22.0732 </r>
       <r>    -0.6953     3.4307    22.3268 </r>
       <r>    -0.6214     4.0501    22.6260 </r>
       <r>    -0.5475     3.0095    22.8484 </r>
       <r>    -0.4736     1.9491    22.9924 </r>
       <r>    -0.3997     3.2946    23.2359 </r>
       <r>    -0.3258     4.5910    23.5751 </r>
       <r>    -0.2519     3.3882    23.8255 </r>
       <r>    -0.1780     4.5701    24.1632 </r>
       <r>    -0.1041     3.0738    24.3903 </r>
       <r>    -0.0302     3.9550    24.6826 </r>
       <r>     0.0437     3.9139    24.9718 </r>
       <r>     0.1176     3.7364    25.2479 </r>
       <r>     0.1915     3.6942    25.5209 </r>
       <r>     0.2654     2.0047    25.6690 </r>
       <r>     0.3392     4.8000    26.0237 </r>
       <r>     0.4131     3.0368    26.2481 </r>
       <r>     0.4870     3.9509    26.5400 </r>
       <r>     0.5609     3.0443    26.7650 </r>
       <r>     0.6348     3.0078    26.9872 </r>
       <r>     0.7087     5.3701    27.3841 </r>
       <r>     0.7826     3.6232    27.6518 </r>
       <r>     0.8565     0.7613    27.7080 </r>
       <r>     0.9304     2.0606    27.8603 </r>
       <r>     1.0043     2.3368    28.0330 </r>
       <r>     1.0782     1.8925    28.1728 </r>
       <r>     1.1521     0.9664    28.2442 </r>
       <r>     1.2260     2.3005    28.4142 </r>
       <r>     1.2999     2.2314    28.5791 </r>
       <r>     1.3738     2.3843    28.7553 </r>
       <r>     1.4476     1.0586    28.8335 </r>
       <r>     1.5215     0.5547    28.8745 </r>
       <r>     1.5954     3.5753    29.1387 </r>
       <r>     1.6693     1.0788    29.2184 </r>
       <r>     1.7432     1.8903    29.3581 </r>
       <r>     1.8171     1.1512    29.4432 </r>
       <r>     1.8910     3.2069    29.6801 </r>
       <r>     1.9649     2.7806    29.8856 </r>
       <r>     2.0388     2.1955    30.0478 </r>
       <r>     2.1127     3.5464    30.3099 </r>
       <r>     2.1866     3.8500    30.5944 </r>
       <r>     2.2605     3.6258    30.8623 </r>
       <r>     2.3344     3.1878    31.0978 </r>
       <r>     2.4083     3.0728    31.3249 </r>
       <r>     2.4822     1.1279    31.4082 </r>
       <r>     2.5560     1.6241    31.5283 </r>
       <r>     2.6299     0.8724    31.5927 </r>
       <r>     2.7038     1.5044    31.7039 </r>
       <r>     2.7777     0.9114    31.7712 </r>
       <r>     2.8516     0.8092    31.8310 </r>
       <r>     2.9255     0.8604    31.8946 </r>
       <r>     2.9994     0.3904    31.9234 </r>
       <r>     3.0733     0.3699    31.9508 </r>
       <r>     3.1472     0.6658    32.0000 </r>
       <r>     3.2211     0.0002    32.0000 </r>
       <r>     3.2950     0.0000    32.0000 </r>
       <r>     3.3689     0.0000    32.0000 </r>
       <r>     3.4428     0.0000    32.0000 </r>
       <r>     3.5167     0.0000    32.0000 </r>
       <r>     3.5906     0.0000    32.0000 </r>
       <r>     3.6644     0.0000    32.0000 </r>
       <r>     3.7383     0.0000    32.0000 </r>
       <r>     3.8122     0.0000    32.0000 </r>
       <r>     3.8861     0.0000    32.0000 </r>
       <r>     3.9600     0.0000    32.0000 </r>
       <r>     4.0339     0.0000    32.0000 </r>
       <r>     4.1078     0.0000    32.0000 </r>
      </set>
     </set>
    </array>
   </total>
  </dos>
 </calculation>
 <structure name="finalpos" >
  <crystal>
   <varray name="basis" >
    <v>       3.48943300       0.00000000       0.00000000 </v>
    <v>       0.00000000       4.89289500      -0.00005300 </v>
    <v>       0.00000000       0.00000000      20.02439000 </v>
   </varray>
   <i name="volume">    341.88500651 </i>
   <varray name="rec_basis" >
    <v>       0.28657951       0.00000000       0.00000000 </v>
    <v>       0.00000000       0.20437798       0.00000000 </v>
    <v>       0.00000000       0.00000054       0.04993910 </v>
   </varray>
  </crystal>
  <varray name="positions" >
   <v>       0.50000000       0.90030077       0.55106221 </v>
   <v>       0.50000000       0.09969923       0.44893779 </v>
   <v>      -0.00000000       0.40029643       0.44893779 </v>
   <v>       0.00000000       0.59970357       0.55106221 </v>
  </varray>
 </structure>
</modeling>
