 running on   48 total cores
 distrk:  each k-point on   48 cores,    1 groups
 distr:  one band on    8 cores,    6 groups
 using from now: INCAR     
 vasp.5.4.1 24Jun15 (build Nov 20 2020 10:29:34) complex                        
  
 POSCAR found type information on POSCAR  C 
 POSCAR found :  1 types and       2 ions
 scaLAPACK will be used

 ----------------------------------------------------------------------------- 
|                                                                             |
|  ADVICE TO THIS USER RUNNING 'VASP/VAMP'   (HEAR YOUR MASTER'S VOICE ...):  |
|                                                                             |
|      You have a (more or less) 'small supercell' and for smaller cells      |
|      it is recommended  to use the reciprocal-space projection scheme!      |
|      The real space optimization is not  efficient for small cells and it   |
|      is also less accurate ...                                              |
|      Therefore set LREAL=.FALSE. in the  INCAR file                         |
|                                                                             |
 ----------------------------------------------------------------------------- 

 LDA part: xc-table for Pade appr. of Perdew
 POSCAR, INCAR and KPOINTS ok, starting setup
 WARNING: small aliasing (wrap around) errors must be expected
 FFT: planning ...
 WAVECAR not read
 entering main loop
       N       E                     dE             d eps       ncg     rms          rms(c)
DAV:   1     0.358229225348E+02    0.35823E+02   -0.38045E+03  3816   0.499E+02
DAV:   2    -0.180874049113E+02   -0.53910E+02   -0.47206E+02  5004   0.994E+01
DAV:   3    -0.197752461826E+02   -0.16878E+01   -0.16878E+01  5772   0.240E+01
DAV:   4    -0.197815875783E+02   -0.63414E-02   -0.63414E-02  5400   0.144E+00
DAV:   5    -0.197815993800E+02   -0.11802E-04   -0.11802E-04  5640   0.513E-02    0.645E+00
DAV:   6    -0.188195044731E+02    0.96209E+00   -0.93906E-01  4800   0.466E+00    0.380E+00
DAV:   7    -0.184492641764E+02    0.37024E+00   -0.12221E+00  5460   0.520E+00    0.978E-01
DAV:   8    -0.184412178453E+02    0.80463E-02   -0.99351E-03  5208   0.657E-01    0.942E-02
DAV:   9    -0.184392509325E+02    0.19669E-02   -0.13030E-03  5004   0.140E-01    0.736E-02
DAV:  10    -0.184375503174E+02    0.17006E-02   -0.27597E-03  4332   0.172E-01    0.389E-02
DAV:  11    -0.184377925927E+02   -0.24228E-03   -0.16793E-04  4104   0.568E-02    0.576E-02
DAV:  12    -0.184380111925E+02   -0.21860E-03   -0.36241E-05  4308   0.296E-02    0.103E-02
DAV:  13    -0.184387461510E+02   -0.73496E-03   -0.19864E-04  4200   0.377E-02    0.495E-03
DAV:  14    -0.184388002431E+02   -0.54092E-04   -0.75067E-07  5028   0.414E-03    0.301E-03
DAV:  15    -0.184389044333E+02   -0.10419E-03   -0.88396E-06  4128   0.806E-03    0.832E-04
DAV:  16    -0.184389121560E+02   -0.77227E-05   -0.13143E-07  4272   0.185E-03
   1 F= -.18438912E+02 E0= -.18438912E+02  d E =-.342874E-11
