<?xml version="1.0" encoding="ISO-8859-1"?>
<modeling>
 <generator>
  <i name="program" type="string">vasp </i>
  <i name="version" type="string">5.4.1  </i>
  <i name="subversion" type="string">24Jun15 (build Nov 20 2020 10:29:34) complex                          parallel </i>
  <i name="platform" type="string">IFC91_ompi </i>
  <i name="date" type="string">2021 09 09 </i>
  <i name="time" type="string">13:45:00 </i>
 </generator>
 <incar>
  <i type="string" name="PREC">a</i>
  <i type="string" name="ALGO"> Normal</i>
  <i type="int" name="ISPIN">     1</i>
  <i type="int" name="ICHARG">     2</i>
  <i type="int" name="NELM">   250</i>
  <i type="int" name="NELMDL">    -5</i>
  <i type="int" name="NELMIN">     6</i>
  <i type="int" name="IBRION">     2</i>
  <i name="EDIFF">      0.00001000</i>
  <i name="EDIFFG">     -0.01000000</i>
  <i type="int" name="NSW">   200</i>
  <i type="int" name="ISIF">     2</i>
  <i name="ENCUT">    520.00000000</i>
  <i name="POTIM">      0.30000000</i>
  <i type="logical" name="LREAL"> F  </i>
  <i type="int" name="ISMEAR">     0</i>
  <i name="SIGMA">      0.02000000</i>
  <i type="logical" name="LWAVE"> F  </i>
  <i type="logical" name="LCHARG"> F  </i>
  <i type="logical" name="LAECHG"> F  </i>
  <v type="int" name="KPOINT_BSE">    -1     0     0     0</v>
  <i type="int" name="NELM">   250</i>
 </incar>
 <kpoints>
  <generation param="Gamma">
   <v type="int" name="divisions">      22       15        1 </v>
   <v name="usershift">      0.00000000       0.00000000       0.00000000 </v>
   <v name="genvec1">      0.04545455       0.00000000       0.00000000 </v>
   <v name="genvec2">      0.00000000       0.06666667       0.00000000 </v>
   <v name="genvec3">     -0.00000000       0.00000000       1.00000000 </v>
   <v name="shift">      0.00000000       0.00000000       0.00000000 </v>
  </generation>
  <varray name="kpointlist" >
   <v>       0.00000000       0.00000000       0.00000000 </v>
   <v>       0.04545455       0.00000000       0.00000000 </v>
   <v>       0.09090909       0.00000000       0.00000000 </v>
   <v>       0.13636364       0.00000000       0.00000000 </v>
   <v>       0.18181818       0.00000000       0.00000000 </v>
   <v>       0.22727273       0.00000000       0.00000000 </v>
   <v>       0.27272727       0.00000000       0.00000000 </v>
   <v>       0.31818182       0.00000000       0.00000000 </v>
   <v>       0.36363636       0.00000000       0.00000000 </v>
   <v>       0.40909091       0.00000000       0.00000000 </v>
   <v>       0.45454545       0.00000000       0.00000000 </v>
   <v>       0.50000000       0.00000000       0.00000000 </v>
   <v>      -0.00000000       0.06666667       0.00000000 </v>
   <v>       0.04545455       0.06666667       0.00000000 </v>
   <v>       0.09090909       0.06666667       0.00000000 </v>
   <v>       0.13636364       0.06666667       0.00000000 </v>
   <v>       0.18181818       0.06666667       0.00000000 </v>
   <v>       0.22727273       0.06666667       0.00000000 </v>
   <v>       0.27272727       0.06666667       0.00000000 </v>
   <v>       0.31818182       0.06666667       0.00000000 </v>
   <v>       0.36363636       0.06666667       0.00000000 </v>
   <v>       0.40909091       0.06666667       0.00000000 </v>
   <v>       0.45454545       0.06666667       0.00000000 </v>
   <v>       0.50000000       0.06666667       0.00000000 </v>
   <v>      -0.45454545       0.06666667       0.00000000 </v>
   <v>      -0.40909091       0.06666667       0.00000000 </v>
   <v>      -0.36363636       0.06666667       0.00000000 </v>
   <v>      -0.31818182       0.06666667       0.00000000 </v>
   <v>      -0.27272727       0.06666667       0.00000000 </v>
   <v>      -0.22727273       0.06666667       0.00000000 </v>
   <v>      -0.18181818       0.06666667       0.00000000 </v>
   <v>      -0.13636364       0.06666667       0.00000000 </v>
   <v>      -0.09090909       0.06666667       0.00000000 </v>
   <v>      -0.04545455       0.06666667       0.00000000 </v>
   <v>      -0.00000000       0.13333333       0.00000000 </v>
   <v>       0.04545455       0.13333333       0.00000000 </v>
   <v>       0.09090909       0.13333333       0.00000000 </v>
   <v>       0.13636364       0.13333333       0.00000000 </v>
   <v>       0.18181818       0.13333333       0.00000000 </v>
   <v>       0.22727273       0.13333333       0.00000000 </v>
   <v>       0.27272727       0.13333333       0.00000000 </v>
   <v>       0.31818182       0.13333333       0.00000000 </v>
   <v>       0.36363636       0.13333333       0.00000000 </v>
   <v>       0.40909091       0.13333333       0.00000000 </v>
   <v>       0.45454545       0.13333333       0.00000000 </v>
   <v>       0.50000000       0.13333333       0.00000000 </v>
   <v>      -0.45454545       0.13333333       0.00000000 </v>
   <v>      -0.40909091       0.13333333       0.00000000 </v>
   <v>      -0.36363636       0.13333333       0.00000000 </v>
   <v>      -0.31818182       0.13333333       0.00000000 </v>
   <v>      -0.27272727       0.13333333       0.00000000 </v>
   <v>      -0.22727273       0.13333333       0.00000000 </v>
   <v>      -0.18181818       0.13333333       0.00000000 </v>
   <v>      -0.13636364       0.13333333       0.00000000 </v>
   <v>      -0.09090909       0.13333333       0.00000000 </v>
   <v>      -0.04545455       0.13333333       0.00000000 </v>
   <v>      -0.00000000       0.20000000       0.00000000 </v>
   <v>       0.04545455       0.20000000       0.00000000 </v>
   <v>       0.09090909       0.20000000       0.00000000 </v>
   <v>       0.13636364       0.20000000       0.00000000 </v>
   <v>       0.18181818       0.20000000       0.00000000 </v>
   <v>       0.22727273       0.20000000       0.00000000 </v>
   <v>       0.27272727       0.20000000       0.00000000 </v>
   <v>       0.31818182       0.20000000       0.00000000 </v>
   <v>       0.36363636       0.20000000       0.00000000 </v>
   <v>       0.40909091       0.20000000       0.00000000 </v>
   <v>       0.45454545       0.20000000       0.00000000 </v>
   <v>       0.50000000       0.20000000       0.00000000 </v>
   <v>      -0.45454545       0.20000000       0.00000000 </v>
   <v>      -0.40909091       0.20000000       0.00000000 </v>
   <v>      -0.36363636       0.20000000       0.00000000 </v>
   <v>      -0.31818182       0.20000000       0.00000000 </v>
   <v>      -0.27272727       0.20000000       0.00000000 </v>
   <v>      -0.22727273       0.20000000       0.00000000 </v>
   <v>      -0.18181818       0.20000000       0.00000000 </v>
   <v>      -0.13636364       0.20000000       0.00000000 </v>
   <v>      -0.09090909       0.20000000       0.00000000 </v>
   <v>      -0.04545455       0.20000000       0.00000000 </v>
   <v>      -0.00000000       0.26666667       0.00000000 </v>
   <v>       0.04545455       0.26666667       0.00000000 </v>
   <v>       0.09090909       0.26666667       0.00000000 </v>
   <v>       0.13636364       0.26666667       0.00000000 </v>
   <v>       0.18181818       0.26666667       0.00000000 </v>
   <v>       0.22727273       0.26666667       0.00000000 </v>
   <v>       0.27272727       0.26666667       0.00000000 </v>
   <v>       0.31818182       0.26666667       0.00000000 </v>
   <v>       0.36363636       0.26666667       0.00000000 </v>
   <v>       0.40909091       0.26666667       0.00000000 </v>
   <v>       0.45454545       0.26666667       0.00000000 </v>
   <v>       0.50000000       0.26666667       0.00000000 </v>
   <v>      -0.45454545       0.26666667       0.00000000 </v>
   <v>      -0.40909091       0.26666667       0.00000000 </v>
   <v>      -0.36363636       0.26666667       0.00000000 </v>
   <v>      -0.31818182       0.26666667       0.00000000 </v>
   <v>      -0.27272727       0.26666667       0.00000000 </v>
   <v>      -0.22727273       0.26666667       0.00000000 </v>
   <v>      -0.18181818       0.26666667       0.00000000 </v>
   <v>      -0.13636364       0.26666667       0.00000000 </v>
   <v>      -0.09090909       0.26666667       0.00000000 </v>
   <v>      -0.04545455       0.26666667       0.00000000 </v>
   <v>      -0.00000000       0.33333333       0.00000000 </v>
   <v>       0.04545455       0.33333333       0.00000000 </v>
   <v>       0.09090909       0.33333333       0.00000000 </v>
   <v>       0.13636364       0.33333333       0.00000000 </v>
   <v>       0.18181818       0.33333333       0.00000000 </v>
   <v>       0.22727273       0.33333333       0.00000000 </v>
   <v>       0.27272727       0.33333333       0.00000000 </v>
   <v>       0.31818182       0.33333333       0.00000000 </v>
   <v>       0.36363636       0.33333333       0.00000000 </v>
   <v>       0.40909091       0.33333333       0.00000000 </v>
   <v>       0.45454545       0.33333333       0.00000000 </v>
   <v>       0.50000000       0.33333333       0.00000000 </v>
   <v>      -0.45454545       0.33333333       0.00000000 </v>
   <v>      -0.40909091       0.33333333       0.00000000 </v>
   <v>      -0.36363636       0.33333333       0.00000000 </v>
   <v>      -0.31818182       0.33333333       0.00000000 </v>
   <v>      -0.27272727       0.33333333       0.00000000 </v>
   <v>      -0.22727273       0.33333333       0.00000000 </v>
   <v>      -0.18181818       0.33333333       0.00000000 </v>
   <v>      -0.13636364       0.33333333       0.00000000 </v>
   <v>      -0.09090909       0.33333333       0.00000000 </v>
   <v>      -0.04545455       0.33333333       0.00000000 </v>
   <v>      -0.00000000       0.40000000       0.00000000 </v>
   <v>       0.04545455       0.40000000       0.00000000 </v>
   <v>       0.09090909       0.40000000       0.00000000 </v>
   <v>       0.13636364       0.40000000       0.00000000 </v>
   <v>       0.18181818       0.40000000       0.00000000 </v>
   <v>       0.22727273       0.40000000       0.00000000 </v>
   <v>       0.27272727       0.40000000       0.00000000 </v>
   <v>       0.31818182       0.40000000       0.00000000 </v>
   <v>       0.36363636       0.40000000       0.00000000 </v>
   <v>       0.40909091       0.40000000       0.00000000 </v>
   <v>       0.45454545       0.40000000       0.00000000 </v>
   <v>       0.50000000       0.40000000       0.00000000 </v>
   <v>      -0.45454545       0.40000000       0.00000000 </v>
   <v>      -0.40909091       0.40000000       0.00000000 </v>
   <v>      -0.36363636       0.40000000       0.00000000 </v>
   <v>      -0.31818182       0.40000000       0.00000000 </v>
   <v>      -0.27272727       0.40000000       0.00000000 </v>
   <v>      -0.22727273       0.40000000       0.00000000 </v>
   <v>      -0.18181818       0.40000000       0.00000000 </v>
   <v>      -0.13636364       0.40000000       0.00000000 </v>
   <v>      -0.09090909       0.40000000       0.00000000 </v>
   <v>      -0.04545455       0.40000000       0.00000000 </v>
   <v>      -0.00000000       0.46666667       0.00000000 </v>
   <v>       0.04545455       0.46666667       0.00000000 </v>
   <v>       0.09090909       0.46666667       0.00000000 </v>
   <v>       0.13636364       0.46666667       0.00000000 </v>
   <v>       0.18181818       0.46666667       0.00000000 </v>
   <v>       0.22727273       0.46666667       0.00000000 </v>
   <v>       0.27272727       0.46666667       0.00000000 </v>
   <v>       0.31818182       0.46666667       0.00000000 </v>
   <v>       0.36363636       0.46666667       0.00000000 </v>
   <v>       0.40909091       0.46666667       0.00000000 </v>
   <v>       0.45454545       0.46666667       0.00000000 </v>
   <v>       0.50000000       0.46666667       0.00000000 </v>
   <v>      -0.45454545       0.46666667       0.00000000 </v>
   <v>      -0.40909091       0.46666667       0.00000000 </v>
   <v>      -0.36363636       0.46666667       0.00000000 </v>
   <v>      -0.31818182       0.46666667       0.00000000 </v>
   <v>      -0.27272727       0.46666667       0.00000000 </v>
   <v>      -0.22727273       0.46666667       0.00000000 </v>
   <v>      -0.18181818       0.46666667       0.00000000 </v>
   <v>      -0.13636364       0.46666667       0.00000000 </v>
   <v>      -0.09090909       0.46666667       0.00000000 </v>
   <v>      -0.04545455       0.46666667       0.00000000 </v>
  </varray>
  <varray name="weights" >
   <v>       0.00303030 </v>
   <v>       0.00606061 </v>
   <v>       0.00606061 </v>
   <v>       0.00606061 </v>
   <v>       0.00606061 </v>
   <v>       0.00606061 </v>
   <v>       0.00606061 </v>
   <v>       0.00606061 </v>
   <v>       0.00606061 </v>
   <v>       0.00606061 </v>
   <v>       0.00606061 </v>
   <v>       0.00303030 </v>
   <v>       0.00606061 </v>
   <v>       0.00606061 </v>
   <v>       0.00606061 </v>
   <v>       0.00606061 </v>
   <v>       0.00606061 </v>
   <v>       0.00606061 </v>
   <v>       0.00606061 </v>
   <v>       0.00606061 </v>
   <v>       0.00606061 </v>
   <v>       0.00606061 </v>
   <v>       0.00606061 </v>
   <v>       0.00606061 </v>
   <v>       0.00606061 </v>
   <v>       0.00606061 </v>
   <v>       0.00606061 </v>
   <v>       0.00606061 </v>
   <v>       0.00606061 </v>
   <v>       0.00606061 </v>
   <v>       0.00606061 </v>
   <v>       0.00606061 </v>
   <v>       0.00606061 </v>
   <v>       0.00606061 </v>
   <v>       0.00606061 </v>
   <v>       0.00606061 </v>
   <v>       0.00606061 </v>
   <v>       0.00606061 </v>
   <v>       0.00606061 </v>
   <v>       0.00606061 </v>
   <v>       0.00606061 </v>
   <v>       0.00606061 </v>
   <v>       0.00606061 </v>
   <v>       0.00606061 </v>
   <v>       0.00606061 </v>
   <v>       0.00606061 </v>
   <v>       0.00606061 </v>
   <v>       0.00606061 </v>
   <v>       0.00606061 </v>
   <v>       0.00606061 </v>
   <v>       0.00606061 </v>
   <v>       0.00606061 </v>
   <v>       0.00606061 </v>
   <v>       0.00606061 </v>
   <v>       0.00606061 </v>
   <v>       0.00606061 </v>
   <v>       0.00606061 </v>
   <v>       0.00606061 </v>
   <v>       0.00606061 </v>
   <v>       0.00606061 </v>
   <v>       0.00606061 </v>
   <v>       0.00606061 </v>
   <v>       0.00606061 </v>
   <v>       0.00606061 </v>
   <v>       0.00606061 </v>
   <v>       0.00606061 </v>
   <v>       0.00606061 </v>
   <v>       0.00606061 </v>
   <v>       0.00606061 </v>
   <v>       0.00606061 </v>
   <v>       0.00606061 </v>
   <v>       0.00606061 </v>
   <v>       0.00606061 </v>
   <v>       0.00606061 </v>
   <v>       0.00606061 </v>
   <v>       0.00606061 </v>
   <v>       0.00606061 </v>
   <v>       0.00606061 </v>
   <v>       0.00606061 </v>
   <v>       0.00606061 </v>
   <v>       0.00606061 </v>
   <v>       0.00606061 </v>
   <v>       0.00606061 </v>
   <v>       0.00606061 </v>
   <v>       0.00606061 </v>
   <v>       0.00606061 </v>
   <v>       0.00606061 </v>
   <v>       0.00606061 </v>
   <v>       0.00606061 </v>
   <v>       0.00606061 </v>
   <v>       0.00606061 </v>
   <v>       0.00606061 </v>
   <v>       0.00606061 </v>
   <v>       0.00606061 </v>
   <v>       0.00606061 </v>
   <v>       0.00606061 </v>
   <v>       0.00606061 </v>
   <v>       0.00606061 </v>
   <v>       0.00606061 </v>
   <v>       0.00606061 </v>
   <v>       0.00606061 </v>
   <v>       0.00606061 </v>
   <v>       0.00606061 </v>
   <v>       0.00606061 </v>
   <v>       0.00606061 </v>
   <v>       0.00606061 </v>
   <v>       0.00606061 </v>
   <v>       0.00606061 </v>
   <v>       0.00606061 </v>
   <v>       0.00606061 </v>
   <v>       0.00606061 </v>
   <v>       0.00606061 </v>
   <v>       0.00606061 </v>
   <v>       0.00606061 </v>
   <v>       0.00606061 </v>
   <v>       0.00606061 </v>
   <v>       0.00606061 </v>
   <v>       0.00606061 </v>
   <v>       0.00606061 </v>
   <v>       0.00606061 </v>
   <v>       0.00606061 </v>
   <v>       0.00606061 </v>
   <v>       0.00606061 </v>
   <v>       0.00606061 </v>
   <v>       0.00606061 </v>
   <v>       0.00606061 </v>
   <v>       0.00606061 </v>
   <v>       0.00606061 </v>
   <v>       0.00606061 </v>
   <v>       0.00606061 </v>
   <v>       0.00606061 </v>
   <v>       0.00606061 </v>
   <v>       0.00606061 </v>
   <v>       0.00606061 </v>
   <v>       0.00606061 </v>
   <v>       0.00606061 </v>
   <v>       0.00606061 </v>
   <v>       0.00606061 </v>
   <v>       0.00606061 </v>
   <v>       0.00606061 </v>
   <v>       0.00606061 </v>
   <v>       0.00606061 </v>
   <v>       0.00606061 </v>
   <v>       0.00606061 </v>
   <v>       0.00606061 </v>
   <v>       0.00606061 </v>
   <v>       0.00606061 </v>
   <v>       0.00606061 </v>
   <v>       0.00606061 </v>
   <v>       0.00606061 </v>
   <v>       0.00606061 </v>
   <v>       0.00606061 </v>
   <v>       0.00606061 </v>
   <v>       0.00606061 </v>
   <v>       0.00606061 </v>
   <v>       0.00606061 </v>
   <v>       0.00606061 </v>
   <v>       0.00606061 </v>
   <v>       0.00606061 </v>
   <v>       0.00606061 </v>
   <v>       0.00606061 </v>
   <v>       0.00606061 </v>
   <v>       0.00606061 </v>
   <v>       0.00606061 </v>
   <v>       0.00606061 </v>
   <v>       0.00606061 </v>
  </varray>
 </kpoints>
 <parameters>
  <separator name="general" >
   <i type="string" name="SYSTEM">unknown system</i>
   <i type="logical" name="LCOMPAT"> F  </i>
  </separator>
  <separator name="electronic" >
   <i type="string" name="PREC">a</i>
   <i name="ENMAX">    520.00000000</i>
   <i name="ENAUG">    342.92400000</i>
   <i name="EDIFF">      0.00001000</i>
   <i type="int" name="IALGO">    38</i>
   <i type="int" name="IWAVPR">    11</i>
   <i type="int" name="NBANDS">    16</i>
   <i name="NELECT">     20.00000000</i>
   <i type="int" name="TURBO">     0</i>
   <i type="int" name="IRESTART">     0</i>
   <i type="int" name="NREBOOT">     0</i>
   <i type="int" name="NMIN">     0</i>
   <i name="EREF">      0.00000000</i>
   <separator name="electronic smearing" >
    <i type="int" name="ISMEAR">     0</i>
    <i name="SIGMA">      0.02000000</i>
    <i name="KSPACING">      0.50000000</i>
    <i type="logical" name="KGAMMA"> T  </i>
   </separator>
   <separator name="electronic projectors" >
    <i type="logical" name="LREAL"> F  </i>
    <v name="ROPT">      0.00000000</v>
    <i type="int" name="LMAXPAW">  -100</i>
    <i type="int" name="LMAXMIX">     2</i>
    <i type="logical" name="NLSPLINE"> F  </i>
   </separator>
   <separator name="electronic startup" >
    <i type="int" name="ISTART">     0</i>
    <i type="int" name="ICHARG">     2</i>
    <i type="int" name="INIWAV">     1</i>
   </separator>
   <separator name="electronic spin" >
    <i type="int" name="ISPIN">     1</i>
    <i type="logical" name="LNONCOLLINEAR"> F  </i>
    <v name="MAGMOM">      1.00000000      1.00000000      1.00000000      1.00000000</v>
    <i name="NUPDOWN">     -1.00000000</i>
    <i type="logical" name="LSORBIT"> F  </i>
    <v name="SAXIS">      0.00000000      0.00000000      1.00000000</v>
    <i type="logical" name="LSPIRAL"> F  </i>
    <v name="QSPIRAL">      0.00000000      0.00000000      0.00000000</v>
    <i type="logical" name="LZEROZ"> F  </i>
   </separator>
   <separator name="electronic exchange-correlation" >
    <i type="logical" name="LASPH"> F  </i>
    <i type="logical" name="LMETAGGA"> F  </i>
   </separator>
   <separator name="electronic convergence" >
    <i type="int" name="NELM">   250</i>
    <i type="int" name="NELMDL">    -5</i>
    <i type="int" name="NELMIN">     6</i>
    <i name="ENINI">    520.00000000</i>
    <separator name="electronic convergence detail" >
     <i type="logical" name="LDIAG"> T  </i>
     <i type="logical" name="LSUBROT"> F  </i>
     <i name="WEIMIN">      0.00100000</i>
     <i name="EBREAK">      0.00000016</i>
     <i name="DEPER">      0.30000000</i>
     <i type="int" name="NRMM">     4</i>
     <i name="TIME">      0.40000000</i>
    </separator>
   </separator>
   <separator name="electronic mixer" >
    <i name="AMIX">      0.40000000</i>
    <i name="BMIX">      1.00000000</i>
    <i name="AMIN">      0.10000000</i>
    <i name="AMIX_MAG">      1.60000000</i>
    <i name="BMIX_MAG">      1.00000000</i>
    <separator name="electronic mixer details" >
     <i type="int" name="IMIX">     4</i>
     <i type="logical" name="MIXFIRST"> F  </i>
     <i type="int" name="MAXMIX">   -45</i>
     <i name="WC">    100.00000000</i>
     <i type="int" name="INIMIX">     1</i>
     <i type="int" name="MIXPRE">     1</i>
     <i type="int" name="MREMOVE">     5</i>
    </separator>
   </separator>
   <separator name="electronic dipolcorrection" >
    <i type="logical" name="LDIPOL"> F  </i>
    <i type="logical" name="LMONO"> F  </i>
    <i type="int" name="IDIPOL">     0</i>
    <i name="EPSILON">      1.00000000</i>
    <v name="DIPOL">   -100.00000000   -100.00000000   -100.00000000</v>
    <i name="EFIELD">      0.00000000</i>
   </separator>
  </separator>
  <separator name="grids" >
   <i type="int" name="NGX">    24</i>
   <i type="int" name="NGY">    36</i>
   <i type="int" name="NGZ">   150</i>
   <i type="int" name="NGXF">    48</i>
   <i type="int" name="NGYF">    72</i>
   <i type="int" name="NGZF">   300</i>
   <i type="logical" name="ADDGRID"> F  </i>
  </separator>
  <separator name="ionic" >
   <i type="int" name="NSW">   200</i>
   <i type="int" name="IBRION">     2</i>
   <i type="int" name="ISIF">     2</i>
   <i name="PSTRESS">      0.00000000</i>
   <i name="EDIFFG">     -0.01000000</i>
   <i type="int" name="NFREE">     1</i>
   <i name="POTIM">      0.30000000</i>
   <i name="SMASS">     -3.00000000</i>
   <i name="SCALEE">      1.00000000</i>
  </separator>
  <separator name="ionic md" >
   <i name="TEBEG">      0.00010000</i>
   <i name="TEEND">      0.00010000</i>
   <i type="int" name="NBLOCK">     1</i>
   <i type="int" name="KBLOCK">   200</i>
   <i type="int" name="NPACO">   256</i>
   <i name="APACO">     16.00000000</i>
  </separator>
  <separator name="symmetry" >
   <i type="int" name="ISYM">     2</i>
   <i name="SYMPREC">      0.00001000</i>
  </separator>
  <separator name="dos" >
   <i type="logical" name="LORBIT"> F  </i>
   <v name="RWIGS">     -1.00000000</v>
   <i type="int" name="NEDOS">   301</i>
   <i name="EMIN">     10.00000000</i>
   <i name="EMAX">    -10.00000000</i>
   <i name="EFERMI">      0.00000000</i>
  </separator>
  <separator name="writing" >
   <i type="int" name="NWRITE">     2</i>
   <i type="logical" name="LWAVE"> F  </i>
   <i type="logical" name="LCHARG"> F  </i>
   <i type="logical" name="LPARD"> F  </i>
   <i type="logical" name="LVTOT"> F  </i>
   <i type="logical" name="LVHAR"> F  </i>
   <i type="logical" name="LELF"> F  </i>
   <i type="logical" name="LOPTICS"> F  </i>
   <v name="STM">      0.00000000      0.00000000      0.00000000      0.00000000      0.00000000      0.00000000      0.00000000</v>
  </separator>
  <separator name="performance" >
   <i type="int" name="NPAR">     4</i>
   <i type="int" name="NSIM">     4</i>
   <i type="int" name="NBLK">    -1</i>
   <i type="logical" name="LPLANE"> T  </i>
   <i type="logical" name="LSCALAPACK"> T  </i>
   <i type="logical" name="LSCAAWARE"> F  </i>
   <i type="logical" name="LSCALU"> F  </i>
   <i type="logical" name="LASYNC"> F  </i>
   <i type="logical" name="LORBITALREAL"> F  </i>
  </separator>
  <separator name="miscellaneous" >
   <i type="int" name="IDIOT">     3</i>
   <i type="logical" name="LMUSIC"> F  </i>
   <v name="POMASS">     30.97400000</v>
   <v name="DARWINR">      0.00000000</v>
   <v name="DARWINV">      1.00000000</v>
   <i type="logical" name="LCORR"> T  </i>
  </separator>
  <i type="logical" name="GGA_COMPAT"> T  </i>
  <i type="logical" name="LBERRY"> F  </i>
  <i type="int" name="ICORELEVEL">     0</i>
  <i type="logical" name="LDAU"> F  </i>
  <i type="int" name="I_CONSTRAINED_M">     0</i>
  <separator name="electronic exchange-correlation" >
   <i type="string" name="GGA">--</i>
   <i type="int" name="VOSKOWN">     0</i>
   <i type="logical" name="LHFCALC"> F  </i>
   <i type="string" name="PRECFOCK"></i>
   <i type="logical" name="LSYMGRAD"> F  </i>
   <i type="logical" name="LHFONE"> F  </i>
   <i type="logical" name="LRHFCALC"> F  </i>
   <i type="logical" name="LTHOMAS"> F  </i>
   <i type="logical" name="LMODELHF"> F  </i>
   <i name="ENCUT4O">     -1.00000000</i>
   <i type="int" name="EXXOEP">     0</i>
   <i type="int" name="FOURORBIT">     0</i>
   <i name="AEXX">      0.00000000</i>
   <i name="HFALPHA">      0.00000000</i>
   <i name="MCALPHA">      0.00000000</i>
   <i name="ALDAX">      1.00000000</i>
   <i name="AGGAX">      1.00000000</i>
   <i name="ALDAC">      1.00000000</i>
   <i name="AGGAC">      1.00000000</i>
   <i type="int" name="NKREDX">     1</i>
   <i type="int" name="NKREDY">     1</i>
   <i type="int" name="NKREDZ">     1</i>
   <i type="logical" name="SHIFTRED"> F  </i>
   <i type="logical" name="ODDONLY"> F  </i>
   <i type="logical" name="EVENONLY"> F  </i>
   <i type="int" name="LMAXFOCK">     0</i>
   <i type="int" name="NMAXFOCKAE">     0</i>
   <i type="logical" name="LFOCKAEDFT"> F  </i>
   <i name="HFSCREEN">      0.00000000</i>
   <i name="HFSCREENC">      0.00000000</i>
   <i type="int" name="NBANDSGWLOW">     0</i>
  </separator>
  <separator name="vdW DFT" >
   <i type="logical" name="LUSE_VDW"> F  </i>
   <i name="Zab_VDW">     -0.84910000</i>
   <i name="PARAM1">      0.12340000</i>
   <i name="PARAM2">      1.00000000</i>
   <i name="PARAM3">      0.00000000</i>
  </separator>
  <separator name="model GW" >
   <i type="int" name="MODEL_GW">     0</i>
   <i name="MODEL_EPS0">     45.43826054</i>
   <i name="MODEL_ALPHA">      1.00000000</i>
  </separator>
  <separator name="linear response parameters" >
   <i type="logical" name="LEPSILON"> F  </i>
   <i type="logical" name="LRPA"> F  </i>
   <i type="logical" name="LNABLA"> F  </i>
   <i type="logical" name="LVEL"> F  </i>
   <i type="int" name="KINTER">     0</i>
   <i name="CSHIFT">      0.10000000</i>
   <i name="OMEGAMAX">     -1.00000000</i>
   <i name="DEG_THRESHOLD">      0.00200000</i>
  </separator>
  <separator name="orbital magnetization" >
   <i type="logical" name="NUCIND"> F  </i>
   <v name="MAGPOS">      0.00000000      0.00000000      0.00000000</v>
   <i type="logical" name="LNICSALL"> T  </i>
   <i type="logical" name="ORBITALMAG"> F  </i>
   <i type="logical" name="LMAGBLOCH"> F  </i>
   <i type="logical" name="LCHIMAG"> F  </i>
   <i type="logical" name="LGAUGE"> T  </i>
   <i type="int" name="MAGATOM">     0</i>
   <v name="MAGDIPOL">      0.00000000      0.00000000      0.00000000</v>
   <v name="AVECCONST">      0.00000000      0.00000000      0.00000000</v>
  </separator>
  <separator name="response functions" >
   <i type="logical" name="LADDER"> F  </i>
   <i type="logical" name="LFXC"> F  </i>
   <i type="logical" name="LHARTREE"> T  </i>
   <i type="int" name="IBSE">     0</i>
   <v type="int" name="KPOINT">    -1     0     0     0</v>
   <i type="logical" name="LTCTE"> F  </i>
   <i type="logical" name="LTETE"> F  </i>
   <i type="logical" name="LTRIPLET"> F  </i>
   <i type="logical" name="LFXCEPS"> F  </i>
   <i type="logical" name="LFXHEG"> F  </i>
   <i type="int" name="NATURALO">     0</i>
   <i type="logical" name="L2ORDER"> F  </i>
   <i type="logical" name="LUSEW"> F  </i>
   <i name="ENCUTGW">     -2.00000000</i>
   <i name="ENCUTGWSOFT">     -2.00000000</i>
   <i name="ENCUTLF">     -1.00000000</i>
   <i type="int" name="LMAXMP2">    -1</i>
   <i name="SCISSOR">      0.00000000</i>
   <i type="int" name="NOMEGA">     0</i>
   <i type="int" name="NOMEGAR">     0</i>
   <i type="int" name="NBANDSGW">    -1</i>
   <i type="int" name="NBANDSO">    -1</i>
   <i type="int" name="NBANDSV">    -1</i>
   <i type="int" name="NELM">   250</i>
   <i type="int" name="NELMHF">     1</i>
   <i type="int" name="DIM">     3</i>
   <i type="int" name="ANTIRES">     0</i>
   <i name="OMEGAMAX">    -30.00000000</i>
   <i name="OMEGAMIN">    -30.00000000</i>
   <i name="OMEGATL">   -200.00000000</i>
   <i type="int" name="OMEGAGRID">     0</i>
   <i name="CSHIFT">     -0.10000000</i>
   <i type="logical" name="SELFENERGY"> F  </i>
   <i type="logical" name="LSPECTRAL"> F  </i>
   <i type="logical" name="LSPECTRALGW"> F  </i>
   <i type="logical" name="LSINGLES"> F  </i>
   <i type="logical" name="LFERMIGW"> F  </i>
   <i type="logical" name="ODDONLYGW"> F  </i>
   <i type="logical" name="EVENONLYGW"> F  </i>
   <i type="int" name="NKREDLFX">     1</i>
   <i type="int" name="NKREDLFY">     1</i>
   <i type="int" name="NKREDLFZ">     1</i>
   <i type="int" name="MAXMEM">  1800</i>
   <i type="int" name="TELESCOPE">     0</i>
   <i type="int" name="TAUPAR">     1</i>
   <i type="int" name="OMEGAPAR">    -1</i>
   <i name="LAMBDA">      1.00000000</i>
  </separator>
  <separator name="External order field" >
   <i name="OFIELD_KAPPA">      0.00000000</i>
   <v name="OFIELD_K">      0.00000000      0.00000000      0.00000000</v>
   <i name="OFIELD_Q6_NEAR">      0.00000000</i>
   <i name="OFIELD_Q6_FAR">      0.00000000</i>
   <i name="OFIELD_A">      0.00000000</i>
  </separator>
 </parameters>
 <atominfo>
  <atoms>       4 </atoms>
  <types>       1 </types>
  <array name="atoms" >
   <dimension dim="1">ion</dimension>
   <field type="string">element</field>
   <field type="int">atomtype</field>
   <set>
    <rc><c>P </c><c>   1</c></rc>
    <rc><c>P </c><c>   1</c></rc>
    <rc><c>P </c><c>   1</c></rc>
    <rc><c>P </c><c>   1</c></rc>
   </set>
  </array>
  <array name="atomtypes" >
   <dimension dim="1">type</dimension>
   <field type="int">atomspertype</field>
   <field type="string">element</field>
   <field>mass</field>
   <field>valence</field>
   <field type="string">pseudopotential</field>
   <set>
    <rc><c>   4</c><c>P </c><c>     30.97400000</c><c>      5.00000000</c><c>  PAW_PBE P 06Sep2000                   </c></rc>
   </set>
  </array>
 </atominfo>
 <structure name="initialpos" >
  <crystal>
   <varray name="basis" >
    <v>       3.27228700      -0.02482300       0.00000000 </v>
    <v>      -0.03480700       4.62322000      -0.00005300 </v>
    <v>       0.00000000       0.00000000      20.02439000 </v>
   </varray>
   <i name="volume">    302.92173691 </i>
   <varray name="rec_basis" >
    <v>       0.30561412       0.00230089       0.00000000 </v>
    <v>       0.00164090       0.21631182       0.00000000 </v>
    <v>       0.00000000       0.00000057       0.04993910 </v>
   </varray>
  </crystal>
  <varray name="positions" >
   <v>       0.50000000       0.91077300       0.55252100 </v>
   <v>       0.50000000       0.08922700       0.44747900 </v>
   <v>       0.00000000       0.41076900       0.44747900 </v>
   <v>       0.00000000       0.58923100       0.55252100 </v>
  </varray>
 </structure>
 <calculation>
  <scstep>
   <time name="dav">    1.31    1.31</time>
   <time name="total">    1.33    1.33</time>
   <energy>
    <i name="alphaZ">      5.29562869 </i>
    <i name="ewald">   1881.57010831 </i>
    <i name="hartreedc">  -2475.11989241 </i>
    <i name="XCdc">     13.10543486 </i>
    <i name="pawpsdc">    559.04011960 </i>
    <i name="pawaedc">   -526.39432044 </i>
    <i name="eentropy">     -0.00100648 </i>
    <i name="bandstr">    -28.18362731 </i>
    <i name="atom">    704.16778566 </i>
    <i name="e_fr_energy">    133.48023048 </i>
    <i name="e_wo_entrp">    133.48123696 </i>
    <i name="e_0_energy">    133.48073372 </i>
   </energy>
  </scstep>
  <scstep>
   <time name="dav">    1.75    1.75</time>
   <time name="total">    1.75    1.76</time>
   <energy>
    <i name="e_fr_energy">     -6.43700087 </i>
    <i name="e_wo_entrp">     -6.43700087 </i>
    <i name="e_0_energy">     -6.43700087 </i>
   </energy>
  </scstep>
  <scstep>
   <time name="dav">    1.59    1.59</time>
   <time name="total">    1.59    1.59</time>
   <energy>
    <i name="e_fr_energy">    -21.35371490 </i>
    <i name="e_wo_entrp">    -21.35371490 </i>
    <i name="e_0_energy">    -21.35371490 </i>
   </energy>
  </scstep>
  <scstep>
   <time name="dav">    1.62    1.62</time>
   <time name="total">    1.62    1.63</time>
   <energy>
    <i name="e_fr_energy">    -21.66090017 </i>
    <i name="e_wo_entrp">    -21.66090017 </i>
    <i name="e_0_energy">    -21.66090017 </i>
   </energy>
  </scstep>
  <scstep>
   <time name="dav">    1.72    1.72</time>
   <time name="total">    1.79    1.79</time>
   <energy>
    <i name="e_fr_energy">    -21.67047865 </i>
    <i name="e_wo_entrp">    -21.67047865 </i>
    <i name="e_0_energy">    -21.67047865 </i>
   </energy>
  </scstep>
  <scstep>
   <time name="dav">    1.55    1.55</time>
   <time name="total">    1.63    1.63</time>
   <energy>
    <i name="e_fr_energy">    -21.51834586 </i>
    <i name="e_wo_entrp">    -21.51834586 </i>
    <i name="e_0_energy">    -21.51834586 </i>
   </energy>
  </scstep>
  <scstep>
   <time name="dav">    1.54    1.54</time>
   <time name="total">    1.63    1.63</time>
   <energy>
    <i name="e_fr_energy">    -21.44817789 </i>
    <i name="e_wo_entrp">    -21.44817789 </i>
    <i name="e_0_energy">    -21.44817789 </i>
   </energy>
  </scstep>
  <scstep>
   <time name="dav">    1.57    1.57</time>
   <time name="total">    1.66    1.66</time>
   <energy>
    <i name="e_fr_energy">    -21.44733219 </i>
    <i name="e_wo_entrp">    -21.44733219 </i>
    <i name="e_0_energy">    -21.44733219 </i>
   </energy>
  </scstep>
  <scstep>
   <time name="dav">    1.83    1.84</time>
   <time name="total">    1.92    1.92</time>
   <energy>
    <i name="e_fr_energy">    -21.44717736 </i>
    <i name="e_wo_entrp">    -21.44717736 </i>
    <i name="e_0_energy">    -21.44717736 </i>
   </energy>
  </scstep>
  <scstep>
   <time name="dav">    1.56    1.56</time>
   <time name="total">    1.64    1.64</time>
   <energy>
    <i name="e_fr_energy">    -21.44695223 </i>
    <i name="e_wo_entrp">    -21.44695223 </i>
    <i name="e_0_energy">    -21.44695223 </i>
   </energy>
  </scstep>
  <scstep>
   <time name="dav">    1.59    1.59</time>
   <time name="total">    1.68    1.68</time>
   <energy>
    <i name="e_fr_energy">    -21.44685044 </i>
    <i name="e_wo_entrp">    -21.44685044 </i>
    <i name="e_0_energy">    -21.44685044 </i>
   </energy>
  </scstep>
  <scstep>
   <time name="dav">    1.41    1.41</time>
   <time name="total">    1.49    1.49</time>
   <energy>
    <i name="e_fr_energy">    -21.44723398 </i>
    <i name="e_wo_entrp">    -21.44723398 </i>
    <i name="e_0_energy">    -21.44723398 </i>
   </energy>
  </scstep>
  <scstep>
   <time name="dav">    1.41    1.41</time>
   <time name="total">    1.49    1.49</time>
   <energy>
    <i name="e_fr_energy">    -21.44732587 </i>
    <i name="e_wo_entrp">    -21.44732587 </i>
    <i name="e_0_energy">    -21.44732587 </i>
   </energy>
  </scstep>
  <scstep>
   <time name="dav">    1.30    1.30</time>
   <time name="total">    1.39    1.39</time>
   <energy>
    <i name="e_fr_energy">    -21.44747851 </i>
    <i name="e_wo_entrp">    -21.44747851 </i>
    <i name="e_0_energy">    -21.44747851 </i>
   </energy>
  </scstep>
  <scstep>
   <time name="dav">    1.35    1.35</time>
   <time name="total">    1.43    1.43</time>
   <energy>
    <i name="e_fr_energy">    -21.44752016 </i>
    <i name="e_wo_entrp">    -21.44752016 </i>
    <i name="e_0_energy">    -21.44752016 </i>
   </energy>
  </scstep>
  <scstep>
   <time name="dav">    1.27    1.27</time>
   <time name="total">    1.36    1.36</time>
   <energy>
    <i name="e_fr_energy">    -21.44755570 </i>
    <i name="e_wo_entrp">    -21.44755570 </i>
    <i name="e_0_energy">    -21.44755570 </i>
   </energy>
  </scstep>
  <scstep>
   <time name="dav">    1.30    1.30</time>
   <time name="total">    1.31    1.31</time>
   <energy>
    <i name="alphaZ">      5.29562869 </i>
    <i name="ewald">   1881.57010831 </i>
    <i name="hartreedc">  -2490.91350088 </i>
    <i name="XCdc">     14.18603768 </i>
    <i name="pawpsdc">   2138.92965456 </i>
    <i name="pawaedc">  -2106.63554631 </i>
    <i name="eentropy">     -0.00000000 </i>
    <i name="bandstr">   -168.04772537 </i>
    <i name="atom">    704.16778566 </i>
    <i name="e_fr_energy">    -21.44755766 </i>
    <i name="e_wo_entrp">    -21.44755766 </i>
    <i name="e_0_energy">    -21.44755766 </i>
   </energy>
  </scstep>
  <structure>
   <crystal>
    <varray name="basis" >
     <v>       3.27228700      -0.02482300       0.00000000 </v>
     <v>      -0.03480700       4.62322000      -0.00005300 </v>
     <v>       0.00000000       0.00000000      20.02439000 </v>
    </varray>
    <i name="volume">    302.92173691 </i>
    <varray name="rec_basis" >
     <v>       0.30561412       0.00230089       0.00000000 </v>
     <v>       0.00164090       0.21631182       0.00000000 </v>
     <v>       0.00000000       0.00000057       0.04993910 </v>
    </varray>
   </crystal>
   <varray name="positions" >
    <v>       0.50000000       0.91077300       0.55252100 </v>
    <v>       0.50000000       0.08922700       0.44747900 </v>
    <v>       0.00000000       0.41076900       0.44747900 </v>
    <v>       0.00000000       0.58923100       0.55252100 </v>
   </varray>
  </structure>
  <varray name="forces" >
   <v>       0.20530478       0.04922748       0.00679436 </v>
   <v>      -0.20530478      -0.04922748      -0.00679436 </v>
   <v>       0.20530340       0.04919494      -0.00679230 </v>
   <v>      -0.20530340      -0.04919494       0.00679230 </v>
  </varray>
  <varray name="stress" >
   <v>       4.52486338       4.46292115      -0.00003329 </v>
   <v>       4.46292109       1.46470774       0.00034681 </v>
   <v>      -0.00003323       0.00034681       0.08696232 </v>
  </varray>
  <energy>
   <i name="e_fr_energy">    -21.44755766 </i>
   <i name="e_wo_entrp">    -21.44755766 </i>
   <i name="e_0_energy">     -0.00000000 </i>
  </energy>
  <time name="totalsc">   27.49   27.53</time>
 </calculation>
 <calculation>
  <scstep>
   <time name="dav">    1.33    1.33</time>
   <time name="total">    1.41    1.41</time>
   <energy>
    <i name="alphaZ">      5.29562869 </i>
    <i name="ewald">   1881.13535816 </i>
    <i name="hartreedc">  -2490.59255995 </i>
    <i name="XCdc">     14.17737745 </i>
    <i name="pawpsdc">   2138.50151075 </i>
    <i name="pawaedc">  -2106.20745445 </i>
    <i name="eentropy">     -0.00000000 </i>
    <i name="bandstr">   -167.92830379 </i>
    <i name="atom">    704.16778566 </i>
    <i name="e_fr_energy">    -21.45065748 </i>
    <i name="e_wo_entrp">    -21.45065748 </i>
    <i name="e_0_energy">    -21.45065748 </i>
   </energy>
  </scstep>
  <scstep>
   <time name="dav">    1.60    1.60</time>
   <time name="total">    1.69    1.69</time>
   <energy>
    <i name="e_fr_energy">    -21.45113733 </i>
    <i name="e_wo_entrp">    -21.45113733 </i>
    <i name="e_0_energy">    -21.45113733 </i>
   </energy>
  </scstep>
  <scstep>
   <time name="dav">    1.73    1.73</time>
   <time name="total">    1.82    1.82</time>
   <energy>
    <i name="e_fr_energy">    -21.45111075 </i>
    <i name="e_wo_entrp">    -21.45111075 </i>
    <i name="e_0_energy">    -21.45111075 </i>
   </energy>
  </scstep>
  <scstep>
   <time name="dav">    1.50    1.50</time>
   <time name="total">    1.59    1.59</time>
   <energy>
    <i name="e_fr_energy">    -21.45110565 </i>
    <i name="e_wo_entrp">    -21.45110565 </i>
    <i name="e_0_energy">    -21.45110565 </i>
   </energy>
  </scstep>
  <scstep>
   <time name="dav">    1.16    1.16</time>
   <time name="total">    1.24    1.25</time>
   <energy>
    <i name="e_fr_energy">    -21.45110721 </i>
    <i name="e_wo_entrp">    -21.45110721 </i>
    <i name="e_0_energy">    -21.45110721 </i>
   </energy>
  </scstep>
  <scstep>
   <time name="dav">    1.14    1.14</time>
   <time name="total">    1.15    1.16</time>
   <energy>
    <i name="alphaZ">      5.29562869 </i>
    <i name="ewald">   1881.13535816 </i>
    <i name="hartreedc">  -2490.59100027 </i>
    <i name="XCdc">     14.17590083 </i>
    <i name="pawpsdc">   2131.82430143 </i>
    <i name="pawaedc">  -2099.52767591 </i>
    <i name="eentropy">     -0.00000000 </i>
    <i name="bandstr">   -167.93140670 </i>
    <i name="atom">    704.16778566 </i>
    <i name="e_fr_energy">    -21.45110810 </i>
    <i name="e_wo_entrp">    -21.45110810 </i>
    <i name="e_0_energy">    -21.45110810 </i>
   </energy>
  </scstep>
  <structure>
   <crystal>
    <varray name="basis" >
     <v>       3.27228700      -0.02482300       0.00000000 </v>
     <v>      -0.03480700       4.62322000      -0.00005300 </v>
     <v>       0.00000000       0.00000000      20.02439000 </v>
    </varray>
    <i name="volume">    302.92173691 </i>
    <varray name="rec_basis" >
     <v>       0.30561412       0.00230089       0.00000000 </v>
     <v>       0.00164090       0.21631182       0.00000000 </v>
     <v>       0.00000000       0.00000057       0.04993910 </v>
    </varray>
   </crystal>
   <varray name="positions" >
    <v>       0.50181944       0.91109098       0.55253082 </v>
    <v>       0.49818056       0.08890902       0.44746918 </v>
    <v>       0.00181943       0.41108677       0.44746918 </v>
    <v>      -0.00181943       0.58891323       0.55253082 </v>
   </varray>
  </structure>
  <varray name="forces" >
   <v>       0.07741302       0.01122151       0.00780181 </v>
   <v>      -0.07741302      -0.01122151      -0.00780181 </v>
   <v>       0.07741165       0.01119432      -0.00780210 </v>
   <v>      -0.07741165      -0.01119432       0.00780210 </v>
  </varray>
  <varray name="stress" >
   <v>       4.26530166       2.73414359      -0.00001609 </v>
   <v>       2.73414356       0.93057232       0.00029223 </v>
   <v>      -0.00001607       0.00029221       0.10800700 </v>
  </varray>
  <energy>
   <i name="e_fr_energy">    -21.45110810 </i>
   <i name="e_wo_entrp">    -21.45110810 </i>
   <i name="e_0_energy">     -0.00000000 </i>
  </energy>
  <time name="totalsc">    9.67    9.68</time>
 </calculation>
 <calculation>
  <scstep>
   <time name="dav">    1.33    1.33</time>
   <time name="total">    1.42    1.42</time>
   <energy>
    <i name="alphaZ">      5.29562869 </i>
    <i name="ewald">   1880.88666230 </i>
    <i name="hartreedc">  -2490.39925123 </i>
    <i name="XCdc">     14.17091641 </i>
    <i name="pawpsdc">   2131.82242253 </i>
    <i name="pawaedc">  -2099.52581129 </i>
    <i name="eentropy">     -0.00000000 </i>
    <i name="bandstr">   -167.86988118 </i>
    <i name="atom">    704.16778566 </i>
    <i name="e_fr_energy">    -21.45152811 </i>
    <i name="e_wo_entrp">    -21.45152811 </i>
    <i name="e_0_energy">    -21.45152811 </i>
   </energy>
  </scstep>
  <scstep>
   <time name="dav">    1.57    1.57</time>
   <time name="total">    1.65    1.65</time>
   <energy>
    <i name="e_fr_energy">    -21.45169260 </i>
    <i name="e_wo_entrp">    -21.45169260 </i>
    <i name="e_0_energy">    -21.45169260 </i>
   </energy>
  </scstep>
  <scstep>
   <time name="dav">    1.68    1.68</time>
   <time name="total">    1.77    1.77</time>
   <energy>
    <i name="e_fr_energy">    -21.45168337 </i>
    <i name="e_wo_entrp">    -21.45168337 </i>
    <i name="e_0_energy">    -21.45168337 </i>
   </energy>
  </scstep>
  <scstep>
   <time name="dav">    1.15    1.15</time>
   <time name="total">    1.24    1.24</time>
   <energy>
    <i name="e_fr_energy">    -21.45168114 </i>
    <i name="e_wo_entrp">    -21.45168114 </i>
    <i name="e_0_energy">    -21.45168114 </i>
   </energy>
  </scstep>
  <scstep>
   <time name="dav">    1.06    1.06</time>
   <time name="total">    1.15    1.15</time>
   <energy>
    <i name="e_fr_energy">    -21.45168151 </i>
    <i name="e_wo_entrp">    -21.45168151 </i>
    <i name="e_0_energy">    -21.45168151 </i>
   </energy>
  </scstep>
  <scstep>
   <time name="dav">    1.01    1.01</time>
   <time name="total">    1.02    1.02</time>
   <energy>
    <i name="alphaZ">      5.29562869 </i>
    <i name="ewald">   1880.88666230 </i>
    <i name="hartreedc">  -2490.40063789 </i>
    <i name="XCdc">     14.17019072 </i>
    <i name="pawpsdc">   2128.17919517 </i>
    <i name="pawaedc">  -2095.88121632 </i>
    <i name="eentropy">     -0.00000000 </i>
    <i name="bandstr">   -167.86928995 </i>
    <i name="atom">    704.16778566 </i>
    <i name="e_fr_energy">    -21.45168162 </i>
    <i name="e_wo_entrp">    -21.45168162 </i>
    <i name="e_0_energy">    -21.45168162 </i>
   </energy>
  </scstep>
  <structure>
   <crystal>
    <varray name="basis" >
     <v>       3.27228700      -0.02482300       0.00000000 </v>
     <v>      -0.03480700       4.62322000      -0.00005300 </v>
     <v>       0.00000000       0.00000000      20.02439000 </v>
    </varray>
    <i name="volume">    302.92173691 </i>
    <varray name="rec_basis" >
     <v>       0.30561412       0.00230089       0.00000000 </v>
     <v>       0.00164090       0.21631182       0.00000000 </v>
     <v>       0.00000000       0.00000057       0.04993910 </v>
    </varray>
   </crystal>
   <varray name="positions" >
    <v>       0.50288688       0.91127753       0.55253658 </v>
    <v>       0.49711312       0.08872247       0.44746342 </v>
    <v>       0.00288686       0.41127321       0.44746342 </v>
    <v>      -0.00288686       0.58872679       0.55253658 </v>
   </varray>
  </structure>
  <varray name="forces" >
   <v>       0.00371844      -0.00898138       0.00829923 </v>
   <v>      -0.00371844       0.00898138      -0.00829923 </v>
   <v>       0.00371731      -0.00900538      -0.00830061 </v>
   <v>      -0.00371731       0.00900538       0.00830061 </v>
  </varray>
  <varray name="stress" >
   <v>       4.13724582       1.74249482      -0.00000730 </v>
   <v>       1.74249491       0.64954927       0.00025939 </v>
   <v>      -0.00000735       0.00025940       0.11749698 </v>
  </varray>
  <energy>
   <i name="e_fr_energy">    -21.45168162 </i>
   <i name="e_wo_entrp">    -21.45168162 </i>
   <i name="e_0_energy">     -0.00000000 </i>
  </energy>
  <time name="totalsc">    9.02    9.03</time>
 </calculation>
 <calculation>
  <scstep>
   <time name="dav">    1.14    1.14</time>
   <time name="total">    1.22    1.22</time>
   <energy>
    <i name="alphaZ">      5.29562869 </i>
    <i name="ewald">   1880.88090037 </i>
    <i name="hartreedc">  -2490.39775002 </i>
    <i name="XCdc">     14.17008768 </i>
    <i name="pawpsdc">   2128.16005279 </i>
    <i name="pawaedc">  -2095.86207948 </i>
    <i name="eentropy">     -0.00000000 </i>
    <i name="bandstr">   -167.86630749 </i>
    <i name="atom">    704.16778566 </i>
    <i name="e_fr_energy">    -21.45168180 </i>
    <i name="e_wo_entrp">    -21.45168180 </i>
    <i name="e_0_energy">    -21.45168180 </i>
   </energy>
  </scstep>
  <scstep>
   <time name="dav">    0.98    0.98</time>
   <time name="total">    1.06    1.06</time>
   <energy>
    <i name="e_fr_energy">    -21.45168198 </i>
    <i name="e_wo_entrp">    -21.45168198 </i>
    <i name="e_0_energy">    -21.45168198 </i>
   </energy>
  </scstep>
  <scstep>
   <time name="dav">    0.96    0.96</time>
   <time name="total">    1.04    1.04</time>
   <energy>
    <i name="e_fr_energy">    -21.45168203 </i>
    <i name="e_wo_entrp">    -21.45168203 </i>
    <i name="e_0_energy">    -21.45168203 </i>
   </energy>
  </scstep>
  <scstep>
   <time name="dav">    0.98    0.98</time>
   <time name="total">    1.07    1.07</time>
   <energy>
    <i name="e_fr_energy">    -21.45168207 </i>
    <i name="e_wo_entrp">    -21.45168207 </i>
    <i name="e_0_energy">    -21.45168207 </i>
   </energy>
  </scstep>
  <scstep>
   <time name="dav">    0.97    0.97</time>
   <time name="total">    1.06    1.06</time>
   <energy>
    <i name="e_fr_energy">    -21.45168209 </i>
    <i name="e_wo_entrp">    -21.45168209 </i>
    <i name="e_0_energy">    -21.45168209 </i>
   </energy>
  </scstep>
  <scstep>
   <time name="dav">    0.95    0.95</time>
   <time name="total">    0.96    0.96</time>
   <energy>
    <i name="alphaZ">      5.29562869 </i>
    <i name="ewald">   1880.88090037 </i>
    <i name="hartreedc">  -2490.40014881 </i>
    <i name="XCdc">     14.17008885 </i>
    <i name="pawpsdc">   2128.08324185 </i>
    <i name="pawaedc">  -2095.78523716 </i>
    <i name="eentropy">     -0.00000000 </i>
    <i name="bandstr">   -167.86394154 </i>
    <i name="atom">    704.16778566 </i>
    <i name="e_fr_energy">    -21.45168210 </i>
    <i name="e_wo_entrp">    -21.45168210 </i>
    <i name="e_0_energy">    -21.45168210 </i>
   </energy>
  </scstep>
  <structure>
   <crystal>
    <varray name="basis" >
     <v>       3.27228700      -0.02482300       0.00000000 </v>
     <v>      -0.03480700       4.62322000      -0.00005300 </v>
     <v>       0.00000000       0.00000000      20.02439000 </v>
    </varray>
    <i name="volume">    302.92173691 </i>
    <varray name="rec_basis" >
     <v>       0.30561412       0.00230089       0.00000000 </v>
     <v>       0.00164090       0.21631182       0.00000000 </v>
     <v>       0.00000000       0.00000057       0.04993910 </v>
    </varray>
   </crystal>
   <varray name="positions" >
    <v>       0.50291185       0.91128190       0.55253672 </v>
    <v>       0.49708815       0.08871810       0.44746328 </v>
    <v>       0.00291183       0.41127757       0.44746329 </v>
    <v>      -0.00291183       0.58872243       0.55253671 </v>
   </varray>
  </structure>
  <varray name="forces" >
   <v>       0.00190703      -0.00947413       0.00830436 </v>
   <v>      -0.00190703       0.00947413      -0.00830436 </v>
   <v>       0.00190593      -0.00949797      -0.00830585 </v>
   <v>      -0.00190593       0.00949797       0.00830585 </v>
  </varray>
  <varray name="stress" >
   <v>       4.13508797       1.72493884      -0.00000748 </v>
   <v>       1.72493882       0.64207328       0.00025853 </v>
   <v>      -0.00000742       0.00025855       0.11409575 </v>
  </varray>
  <energy>
   <i name="e_fr_energy">    -21.45168210 </i>
   <i name="e_wo_entrp">    -21.45168210 </i>
   <i name="e_0_energy">     -0.00000000 </i>
  </energy>
  <time name="totalsc">    7.18    7.19</time>
 </calculation>
 <calculation>
  <scstep>
   <time name="dav">    1.36    1.36</time>
   <time name="total">    1.45    1.45</time>
   <energy>
    <i name="alphaZ">      5.29562869 </i>
    <i name="ewald">   1880.67602769 </i>
    <i name="hartreedc">  -2490.19398003 </i>
    <i name="XCdc">     14.16983616 </i>
    <i name="pawpsdc">   2128.08430532 </i>
    <i name="pawaedc">  -2095.78630126 </i>
    <i name="eentropy">     -0.00000000 </i>
    <i name="bandstr">   -167.86499508 </i>
    <i name="atom">    704.16778566 </i>
    <i name="e_fr_energy">    -21.45169284 </i>
    <i name="e_wo_entrp">    -21.45169284 </i>
    <i name="e_0_energy">    -21.45169284 </i>
   </energy>
  </scstep>
  <scstep>
   <time name="dav">    1.36    1.36</time>
   <time name="total">    1.44    1.45</time>
   <energy>
    <i name="e_fr_energy">    -21.45169584 </i>
    <i name="e_wo_entrp">    -21.45169584 </i>
    <i name="e_0_energy">    -21.45169584 </i>
   </energy>
  </scstep>
  <scstep>
   <time name="dav">    0.94    0.94</time>
   <time name="total">    1.03    1.03</time>
   <energy>
    <i name="e_fr_energy">    -21.45169576 </i>
    <i name="e_wo_entrp">    -21.45169576 </i>
    <i name="e_0_energy">    -21.45169576 </i>
   </energy>
  </scstep>
  <scstep>
   <time name="dav">    0.96    0.96</time>
   <time name="total">    1.04    1.04</time>
   <energy>
    <i name="e_fr_energy">    -21.45169581 </i>
    <i name="e_wo_entrp">    -21.45169581 </i>
    <i name="e_0_energy">    -21.45169581 </i>
   </energy>
  </scstep>
  <scstep>
   <time name="dav">    0.97    0.97</time>
   <time name="total">    1.06    1.06</time>
   <energy>
    <i name="e_fr_energy">    -21.45169583 </i>
    <i name="e_wo_entrp">    -21.45169583 </i>
    <i name="e_0_energy">    -21.45169583 </i>
   </energy>
  </scstep>
  <scstep>
   <time name="dav">    0.97    0.97</time>
   <time name="total">    0.99    0.99</time>
   <energy>
    <i name="alphaZ">      5.29562869 </i>
    <i name="ewald">   1880.67602769 </i>
    <i name="hartreedc">  -2490.19455553 </i>
    <i name="XCdc">     14.16990920 </i>
    <i name="pawpsdc">   2128.24784801 </i>
    <i name="pawaedc">  -2095.94994701 </i>
    <i name="eentropy">     -0.00000000 </i>
    <i name="bandstr">   -167.86439255 </i>
    <i name="atom">    704.16778566 </i>
    <i name="e_fr_energy">    -21.45169584 </i>
    <i name="e_wo_entrp">    -21.45169584 </i>
    <i name="e_0_energy">    -21.45169584 </i>
   </energy>
  </scstep>
  <structure>
   <crystal>
    <varray name="basis" >
     <v>       3.27228700      -0.02482300       0.00000000 </v>
     <v>      -0.03480700       4.62322000      -0.00005300 </v>
     <v>       0.00000000       0.00000000      20.02439000 </v>
    </varray>
    <i name="volume">    302.92173691 </i>
    <varray name="rec_basis" >
     <v>       0.30561412       0.00230089       0.00000000 </v>
     <v>       0.00164090       0.21631182       0.00000000 </v>
     <v>       0.00000000       0.00000057       0.04993910 </v>
    </varray>
   </crystal>
   <varray name="positions" >
    <v>       0.50293834       0.91121700       0.55255021 </v>
    <v>       0.49706166       0.08878300       0.44744979 </v>
    <v>       0.00293830       0.41121251       0.44744979 </v>
    <v>      -0.00293830       0.58878749       0.55255021 </v>
   </varray>
  </structure>
  <varray name="forces" >
   <v>       0.00014942      -0.00187004       0.00339573 </v>
   <v>      -0.00014942       0.00187004      -0.00339573 </v>
   <v>       0.00014849      -0.00188926      -0.00339661 </v>
   <v>      -0.00014849       0.00188926       0.00339661 </v>
  </varray>
  <varray name="stress" >
   <v>       4.15720547       1.70198007      -0.00000878 </v>
   <v>       1.70198011       0.72211294       0.00020763 </v>
   <v>      -0.00000872       0.00020760       0.00537863 </v>
  </varray>
  <energy>
   <i name="e_fr_energy">    -21.45169584 </i>
   <i name="e_wo_entrp">    -21.45169584 </i>
   <i name="e_0_energy">     -0.00000000 </i>
  </energy>
  <time name="totalsc">    7.70    7.72</time>
  <eigenvalues>
   <array>
    <dimension dim="1">band</dimension>
    <dimension dim="2">kpoint</dimension>
    <dimension dim="3">spin</dimension>
    <field>eigene</field>
    <field>occ</field>
    <set>
     <set comment="spin 1">
      <set comment="kpoint 1">
       <r>  -17.2586    1.0000 </r>
       <r>  -14.8084    1.0000 </r>
       <r>  -11.4265    1.0000 </r>
       <r>   -7.9562    1.0000 </r>
       <r>   -6.9723    1.0000 </r>
       <r>   -6.7960    1.0000 </r>
       <r>   -5.4739    1.0000 </r>
       <r>   -3.9581    1.0000 </r>
       <r>   -3.9070    1.0000 </r>
       <r>   -2.2630    1.0000 </r>
       <r>   -1.3964    0.0000 </r>
       <r>   -0.4970    0.0000 </r>
       <r>    0.5531    0.0000 </r>
       <r>    1.1583    0.0000 </r>
       <r>    2.1366    0.0000 </r>
       <r>    2.3108    0.0000 </r>
      </set>
      <set comment="kpoint 2">
       <r>  -17.2336    1.0000 </r>
       <r>  -14.7823    1.0000 </r>
       <r>  -11.4330    1.0000 </r>
       <r>   -7.9370    1.0000 </r>
       <r>   -6.9850    1.0000 </r>
       <r>   -6.7738    1.0000 </r>
       <r>   -5.6430    1.0000 </r>
       <r>   -4.0849    1.0000 </r>
       <r>   -3.9466    1.0000 </r>
       <r>   -2.2610    1.0000 </r>
       <r>   -1.3728    0.0000 </r>
       <r>   -0.2670    0.0000 </r>
       <r>    0.7636    0.0000 </r>
       <r>    1.0160    0.0000 </r>
       <r>    2.1627    0.0000 </r>
       <r>    2.3388    0.0000 </r>
      </set>
      <set comment="kpoint 3">
       <r>  -17.1584    1.0000 </r>
       <r>  -14.7039    1.0000 </r>
       <r>  -11.4573    1.0000 </r>
       <r>   -7.8800    1.0000 </r>
       <r>   -7.0387    1.0000 </r>
       <r>   -6.7075    1.0000 </r>
       <r>   -6.0609    1.0000 </r>
       <r>   -4.5051    1.0000 </r>
       <r>   -3.9160    1.0000 </r>
       <r>   -2.2729    1.0000 </r>
       <r>   -1.3024    0.0000 </r>
       <r>    0.3519    0.0000 </r>
       <r>    0.5821    0.0000 </r>
       <r>    1.3621    0.0000 </r>
       <r>    2.2379    0.0000 </r>
       <r>    2.4226    0.0000 </r>
      </set>
      <set comment="kpoint 4">
       <r>  -17.0335    1.0000 </r>
       <r>  -14.5735    1.0000 </r>
       <r>  -11.5132    1.0000 </r>
       <r>   -7.7873    1.0000 </r>
       <r>   -7.1852    1.0000 </r>
       <r>   -6.6058    1.0000 </r>
       <r>   -6.5624    1.0000 </r>
       <r>   -4.9596    1.0000 </r>
       <r>   -3.8752    1.0000 </r>
       <r>   -2.3193    1.0000 </r>
       <r>   -1.1862    0.0000 </r>
       <r>    0.0856    0.0000 </r>
       <r>    1.2220    0.0000 </r>
       <r>    1.9799    0.0000 </r>
       <r>    2.3316    0.0000 </r>
       <r>    2.5616    0.0000 </r>
      </set>
      <set comment="kpoint 5">
       <r>  -16.8593    1.0000 </r>
       <r>  -14.3912    1.0000 </r>
       <r>  -11.6233    1.0000 </r>
       <r>   -7.6626    1.0000 </r>
       <r>   -7.4979    1.0000 </r>
       <r>   -7.0529    1.0000 </r>
       <r>   -6.4467    1.0000 </r>
       <r>   -5.2773    1.0000 </r>
       <r>   -3.8426    1.0000 </r>
       <r>   -2.4110    1.0000 </r>
       <r>   -1.0263    0.0000 </r>
       <r>   -0.4109    0.0000 </r>
       <r>    2.0566    0.0000 </r>
       <r>    2.0980    0.0000 </r>
       <r>    2.2154    0.0000 </r>
       <r>    2.6755    0.0000 </r>
      </set>
      <set comment="kpoint 6">
       <r>  -16.6367    1.0000 </r>
       <r>  -14.1574    1.0000 </r>
       <r>  -11.8133    1.0000 </r>
       <r>   -7.9924    1.0000 </r>
       <r>   -7.5126    1.0000 </r>
       <r>   -7.4319    1.0000 </r>
       <r>   -6.2587    1.0000 </r>
       <r>   -5.3968    1.0000 </r>
       <r>   -3.8472    1.0000 </r>
       <r>   -2.5574    1.0000 </r>
       <r>   -0.8278    0.0000 </r>
       <r>   -0.8236    0.0000 </r>
       <r>    1.5100    0.0000 </r>
       <r>    1.5481    0.0000 </r>
       <r>    2.7476    0.0000 </r>
       <r>    2.8903    0.0000 </r>
      </set>
      <set comment="kpoint 7">
       <r>  -16.3668    1.0000 </r>
       <r>  -13.8726    1.0000 </r>
       <r>  -12.0998    1.0000 </r>
       <r>   -8.6010    1.0000 </r>
       <r>   -7.6678    1.0000 </r>
       <r>   -7.3486    1.0000 </r>
       <r>   -6.0383    1.0000 </r>
       <r>   -5.3676    1.0000 </r>
       <r>   -3.9206    1.0000 </r>
       <r>   -2.7637    1.0000 </r>
       <r>   -1.0854    0.0000 </r>
       <r>   -0.6043    0.0000 </r>
       <r>    0.8665    0.0000 </r>
       <r>    0.9992    0.0000 </r>
       <r>    2.3168    0.0000 </r>
       <r>    3.1909    0.0000 </r>
      </set>
      <set comment="kpoint 8">
       <r>  -16.0511    1.0000 </r>
       <r>  -13.5376    1.0000 </r>
       <r>  -12.4780    1.0000 </r>
       <r>   -9.2532    1.0000 </r>
       <r>   -7.7546    1.0000 </r>
       <r>   -7.1893    1.0000 </r>
       <r>   -5.7939    1.0000 </r>
       <r>   -5.2582    1.0000 </r>
       <r>   -4.0669    1.0000 </r>
       <r>   -3.0265    1.0000 </r>
       <r>   -1.1605    0.0000 </r>
       <r>   -0.4097    0.0000 </r>
       <r>    0.2562    0.0000 </r>
       <r>    0.5541    0.0000 </r>
       <r>    1.8212    0.0000 </r>
       <r>    3.2039    0.0000 </r>
      </set>
      <set comment="kpoint 9">
       <r>  -15.6920    1.0000 </r>
       <r>  -13.1539    1.0000 </r>
       <r>  -12.9232    1.0000 </r>
       <r>   -9.9078    1.0000 </r>
       <r>   -7.7141    1.0000 </r>
       <r>   -7.0650    1.0000 </r>
       <r>   -5.5391    1.0000 </r>
       <r>   -5.1201    1.0000 </r>
       <r>   -4.2372    1.0000 </r>
       <r>   -3.3305    1.0000 </r>
       <r>   -1.0616    0.0000 </r>
       <r>   -0.4394    0.0000 </r>
       <r>   -0.2751    0.0000 </r>
       <r>    0.4338    0.0000 </r>
       <r>    1.3275    0.0000 </r>
       <r>    2.8241    0.0000 </r>
      </set>
      <set comment="kpoint 10">
       <r>  -15.2923    1.0000 </r>
       <r>  -13.4086    1.0000 </r>
       <r>  -12.7192    1.0000 </r>
       <r>  -10.5432    1.0000 </r>
       <r>   -7.5820    1.0000 </r>
       <r>   -7.0146    1.0000 </r>
       <r>   -5.2948    1.0000 </r>
       <r>   -4.9975    1.0000 </r>
       <r>   -4.3505    1.0000 </r>
       <r>   -3.6502    1.0000 </r>
       <r>   -0.8371    0.0000 </r>
       <r>   -0.7045    0.0000 </r>
       <r>   -0.6819    0.0000 </r>
       <r>    0.6697    0.0000 </r>
       <r>    0.8431    0.0000 </r>
       <r>    2.3865    0.0000 </r>
      </set>
      <set comment="kpoint 11">
       <r>  -14.8564    1.0000 </r>
       <r>  -13.9033    1.0000 </r>
       <r>  -12.2395    1.0000 </r>
       <r>  -11.1478    1.0000 </r>
       <r>   -7.3987    1.0000 </r>
       <r>   -7.0664    1.0000 </r>
       <r>   -5.0910    1.0000 </r>
       <r>   -4.9338    1.0000 </r>
       <r>   -4.3416    1.0000 </r>
       <r>   -3.9527    1.0000 </r>
       <r>   -0.9623    0.0000 </r>
       <r>   -0.9422    0.0000 </r>
       <r>   -0.4890    0.0000 </r>
       <r>    0.3558    0.0000 </r>
       <r>    1.0530    0.0000 </r>
       <r>    1.9291    0.0000 </r>
      </set>
      <set comment="kpoint 12">
       <r>  -14.3904    1.0000 </r>
       <r>  -14.3904    1.0000 </r>
       <r>  -11.7146    1.0000 </r>
       <r>  -11.7146    1.0000 </r>
       <r>   -7.2096    1.0000 </r>
       <r>   -7.2096    1.0000 </r>
       <r>   -4.9628    1.0000 </r>
       <r>   -4.9628    1.0000 </r>
       <r>   -4.1981    1.0000 </r>
       <r>   -4.1981    1.0000 </r>
       <r>   -1.0420    0.0000 </r>
       <r>   -1.0420    0.0000 </r>
       <r>   -0.0908    0.0000 </r>
       <r>   -0.0907    0.0000 </r>
       <r>    1.4776    0.0000 </r>
       <r>    1.4776    0.0000 </r>
      </set>
      <set comment="kpoint 13">
       <r>  -17.2372    1.0000 </r>
       <r>  -14.8381    1.0000 </r>
       <r>  -11.4363    1.0000 </r>
       <r>   -8.1106    1.0000 </r>
       <r>   -6.8795    1.0000 </r>
       <r>   -6.7012    1.0000 </r>
       <r>   -5.4575    1.0000 </r>
       <r>   -3.9226    1.0000 </r>
       <r>   -3.8601    1.0000 </r>
       <r>   -2.4713    1.0000 </r>
       <r>   -1.2031    0.0000 </r>
       <r>   -0.4808    0.0000 </r>
       <r>    0.5093    0.0000 </r>
       <r>    1.1442    0.0000 </r>
       <r>    2.1963    0.0000 </r>
       <r>    2.3411    0.0000 </r>
      </set>
      <set comment="kpoint 14">
       <r>  -17.2114    1.0000 </r>
       <r>  -14.8129    1.0000 </r>
       <r>  -11.4437    1.0000 </r>
       <r>   -8.0970    1.0000 </r>
       <r>   -6.8876    1.0000 </r>
       <r>   -6.6780    1.0000 </r>
       <r>   -5.6270    1.0000 </r>
       <r>   -4.1031    1.0000 </r>
       <r>   -3.8414    1.0000 </r>
       <r>   -2.4695    1.0000 </r>
       <r>   -1.1807    0.0000 </r>
       <r>   -0.2468    0.0000 </r>
       <r>    0.7382    0.0000 </r>
       <r>    0.9832    0.0000 </r>
       <r>    2.2227    0.0000 </r>
       <r>    2.3702    0.0000 </r>
      </set>
      <set comment="kpoint 15">
       <r>  -17.1356    1.0000 </r>
       <r>  -14.7357    1.0000 </r>
       <r>  -11.4661    1.0000 </r>
       <r>   -8.0539    1.0000 </r>
       <r>   -6.9243    1.0000 </r>
       <r>   -6.6368    1.0000 </r>
       <r>   -6.0199    1.0000 </r>
       <r>   -4.5297    1.0000 </r>
       <r>   -3.8117    1.0000 </r>
       <r>   -2.4697    1.0000 </r>
       <r>   -1.1237    0.0000 </r>
       <r>    0.3745    0.0000 </r>
       <r>    0.5900    0.0000 </r>
       <r>    1.3039    0.0000 </r>
       <r>    2.2957    0.0000 </r>
       <r>    2.4548    0.0000 </r>
      </set>
      <set comment="kpoint 16">
       <r>  -17.0101    1.0000 </r>
       <r>  -14.6069    1.0000 </r>
       <r>  -11.5173    1.0000 </r>
       <r>   -7.9938    1.0000 </r>
       <r>   -7.0316    1.0000 </r>
       <r>   -6.7324    1.0000 </r>
       <r>   -6.3260    1.0000 </r>
       <r>   -4.9935    1.0000 </r>
       <r>   -3.7798    1.0000 </r>
       <r>   -2.4919    1.0000 </r>
       <r>   -1.0321    0.0000 </r>
       <r>    0.1030    0.0000 </r>
       <r>    1.2413    0.0000 </r>
       <r>    1.9348    0.0000 </r>
       <r>    2.3818    0.0000 </r>
       <r>    2.5944    0.0000 </r>
      </set>
      <set comment="kpoint 17">
       <r>  -16.8353    1.0000 </r>
       <r>  -14.4270    1.0000 </r>
       <r>  -11.6197    1.0000 </r>
       <r>   -7.9671    1.0000 </r>
       <r>   -7.2417    1.0000 </r>
       <r>   -7.1321    1.0000 </r>
       <r>   -6.2630    1.0000 </r>
       <r>   -5.3178    1.0000 </r>
       <r>   -3.7657    1.0000 </r>
       <r>   -2.5514    1.0000 </r>
       <r>   -0.9034    0.0000 </r>
       <r>   -0.3709    0.0000 </r>
       <r>    1.9573    0.0000 </r>
       <r>    2.0615    0.0000 </r>
       <r>    2.3242    0.0000 </r>
       <r>    2.6466    0.0000 </r>
      </set>
      <set comment="kpoint 18">
       <r>  -16.6122    1.0000 </r>
       <r>  -14.1969    1.0000 </r>
       <r>  -11.7994    1.0000 </r>
       <r>   -8.1643    1.0000 </r>
       <r>   -7.5003    1.0000 </r>
       <r>   -7.3905    1.0000 </r>
       <r>   -6.0945    1.0000 </r>
       <r>   -5.4379    1.0000 </r>
       <r>   -3.7988    1.0000 </r>
       <r>   -2.6631    1.0000 </r>
       <r>   -0.7499    0.0000 </r>
       <r>   -0.7375    0.0000 </r>
       <r>    1.4310    0.0000 </r>
       <r>    1.5497    0.0000 </r>
       <r>    2.6848    0.0000 </r>
       <r>    3.0346    0.0000 </r>
      </set>
      <set comment="kpoint 19">
       <r>  -16.3418    1.0000 </r>
       <r>  -13.9185    1.0000 </r>
       <r>  -12.0730    1.0000 </r>
       <r>   -8.6699    1.0000 </r>
       <r>   -7.7350    1.0000 </r>
       <r>   -7.3311    1.0000 </r>
       <r>   -5.8866    1.0000 </r>
       <r>   -5.4111    1.0000 </r>
       <r>   -3.9039    1.0000 </r>
       <r>   -2.8365    1.0000 </r>
       <r>   -0.9723    0.0000 </r>
       <r>   -0.5435    0.0000 </r>
       <r>    0.8742    0.0000 </r>
       <r>    0.9190    0.0000 </r>
       <r>    2.4002    0.0000 </r>
       <r>    3.2700    0.0000 </r>
      </set>
      <set comment="kpoint 20">
       <r>  -16.0259    1.0000 </r>
       <r>  -13.5984    1.0000 </r>
       <r>  -12.4315    1.0000 </r>
       <r>   -9.2908    1.0000 </r>
       <r>   -7.8211    1.0000 </r>
       <r>   -7.1999    1.0000 </r>
       <r>   -5.6581    1.0000 </r>
       <r>   -5.3169    1.0000 </r>
       <r>   -4.0667    1.0000 </r>
       <r>   -3.0692    1.0000 </r>
       <r>   -1.0162    0.0000 </r>
       <r>   -0.3727    0.0000 </r>
       <r>    0.3158    0.0000 </r>
       <r>    0.4193    0.0000 </r>
       <r>    1.9662    0.0000 </r>
       <r>    3.1593    0.0000 </r>
      </set>
      <set comment="kpoint 21">
       <r>  -15.6666    1.0000 </r>
       <r>  -13.2881    1.0000 </r>
       <r>  -12.8004    1.0000 </r>
       <r>   -9.9327    1.0000 </r>
       <r>   -7.7776    1.0000 </r>
       <r>   -7.0793    1.0000 </r>
       <r>   -5.4291    1.0000 </r>
       <r>   -5.2199    1.0000 </r>
       <r>   -4.2166    1.0000 </r>
       <r>   -3.3435    1.0000 </r>
       <r>   -0.9152    0.0000 </r>
       <r>   -0.4443    0.0000 </r>
       <r>   -0.1993    0.0000 </r>
       <r>    0.3039    0.0000 </r>
       <r>    1.5203    0.0000 </r>
       <r>    2.7886    0.0000 </r>
      </set>
      <set comment="kpoint 22">
       <r>  -15.2672    1.0000 </r>
       <r>  -13.4507    1.0000 </r>
       <r>  -12.6872    1.0000 </r>
       <r>  -10.5616    1.0000 </r>
       <r>   -7.6391    1.0000 </r>
       <r>   -7.0249    1.0000 </r>
       <r>   -5.2290    1.0000 </r>
       <r>   -5.1634    1.0000 </r>
       <r>   -4.2682    1.0000 </r>
       <r>   -3.6281    1.0000 </r>
       <r>   -0.8422    0.0000 </r>
       <r>   -0.7326    0.0000 </r>
       <r>   -0.4563    0.0000 </r>
       <r>    0.4795    0.0000 </r>
       <r>    1.1289    0.0000 </r>
       <r>    2.3582    0.0000 </r>
      </set>
      <set comment="kpoint 23">
       <r>  -14.8322    1.0000 </r>
       <r>  -13.9106    1.0000 </r>
       <r>  -12.2422    1.0000 </r>
       <r>  -11.1617    1.0000 </r>
       <r>   -7.4454    1.0000 </r>
       <r>   -7.0761    1.0000 </r>
       <r>   -5.1369    1.0000 </r>
       <r>   -5.0975    1.0000 </r>
       <r>   -4.2067    1.0000 </r>
       <r>   -3.8837    1.0000 </r>
       <r>   -1.0268    0.0000 </r>
       <r>   -0.9612    0.0000 </r>
       <r>   -0.2225    0.0000 </r>
       <r>    0.3934    0.0000 </r>
       <r>    1.1179    0.0000 </r>
       <r>    1.9083    0.0000 </r>
      </set>
      <set comment="kpoint 24">
       <r>  -14.3872    1.0000 </r>
       <r>  -14.3685    1.0000 </r>
       <r>  -11.7284    1.0000 </r>
       <r>  -11.7241    1.0000 </r>
       <r>   -7.2418    1.0000 </r>
       <r>   -7.2259    1.0000 </r>
       <r>   -5.1272    1.0000 </r>
       <r>   -5.0618    1.0000 </r>
       <r>   -4.0786    1.0000 </r>
       <r>   -4.0714    1.0000 </r>
       <r>   -1.1209    0.0000 </r>
       <r>   -1.0355    0.0000 </r>
       <r>    0.0233    0.0000 </r>
       <r>    0.1583    0.0000 </r>
       <r>    1.4673    0.0000 </r>
       <r>    1.4689    0.0000 </r>
      </set>
      <set comment="kpoint 25">
       <r>  -14.8481    1.0000 </r>
       <r>  -13.8875    1.0000 </r>
       <r>  -12.2416    1.0000 </r>
       <r>  -11.1680    1.0000 </r>
       <r>   -7.4255    1.0000 </r>
       <r>   -7.0823    1.0000 </r>
       <r>   -5.1750    1.0000 </r>
       <r>   -5.0960    1.0000 </r>
       <r>   -4.2095    1.0000 </r>
       <r>   -3.8741    1.0000 </r>
       <r>   -1.0410    0.0000 </r>
       <r>   -0.9283    0.0000 </r>
       <r>   -0.3425    0.0000 </r>
       <r>    0.5602    0.0000 </r>
       <r>    1.0894    0.0000 </r>
       <r>    1.8926    0.0000 </r>
      </set>
      <set comment="kpoint 26">
       <r>  -15.2810    1.0000 </r>
       <r>  -13.4170    1.0000 </r>
       <r>  -12.6967    1.0000 </r>
       <r>  -10.5691    1.0000 </r>
       <r>   -7.6192    1.0000 </r>
       <r>   -7.0178    1.0000 </r>
       <r>   -5.3060    1.0000 </r>
       <r>   -5.1485    1.0000 </r>
       <r>   -4.2717    1.0000 </r>
       <r>   -3.6196    1.0000 </r>
       <r>   -0.8111    0.0000 </r>
       <r>   -0.7760    0.0000 </r>
       <r>   -0.5182    0.0000 </r>
       <r>    0.5760    0.0000 </r>
       <r>    1.1699    0.0000 </r>
       <r>    2.3356    0.0000 </r>
      </set>
      <set comment="kpoint 27">
       <r>  -15.6786    1.0000 </r>
       <r>  -13.2511    1.0000 </r>
       <r>  -12.8127    1.0000 </r>
       <r>   -9.9408    1.0000 </r>
       <r>   -7.7602    1.0000 </r>
       <r>   -7.0614    1.0000 </r>
       <r>   -5.4987    1.0000 </r>
       <r>   -5.2198    1.0000 </r>
       <r>   -4.2306    1.0000 </r>
       <r>   -3.3358    1.0000 </r>
       <r>   -0.9466    0.0000 </r>
       <r>   -0.5119    0.0000 </r>
       <r>   -0.1388    0.0000 </r>
       <r>    0.3259    0.0000 </r>
       <r>    1.6184    0.0000 </r>
       <r>    2.7631    0.0000 </r>
      </set>
      <set comment="kpoint 28">
       <r>  -16.0361    1.0000 </r>
       <r>  -13.5815    1.0000 </r>
       <r>  -12.4236    1.0000 </r>
       <r>   -9.2987    1.0000 </r>
       <r>   -7.8076    1.0000 </r>
       <r>   -7.1770    1.0000 </r>
       <r>   -5.7176    1.0000 </r>
       <r>   -5.3216    1.0000 </r>
       <r>   -4.0953    1.0000 </r>
       <r>   -3.0602    1.0000 </r>
       <r>   -1.0518    0.0000 </r>
       <r>   -0.3878    0.0000 </r>
       <r>    0.3571    0.0000 </r>
       <r>    0.4036    0.0000 </r>
       <r>    2.0831    0.0000 </r>
       <r>    3.1315    0.0000 </r>
      </set>
      <set comment="kpoint 29">
       <r>  -16.3505    1.0000 </r>
       <r>  -13.9072    1.0000 </r>
       <r>  -12.0601    1.0000 </r>
       <r>   -8.6759    1.0000 </r>
       <r>   -7.7265    1.0000 </r>
       <r>   -7.3087    1.0000 </r>
       <r>   -5.9344    1.0000 </r>
       <r>   -5.4179    1.0000 </r>
       <r>   -3.9429    1.0000 </r>
       <r>   -2.8245    1.0000 </r>
       <r>   -1.0022    0.0000 </r>
       <r>   -0.5432    0.0000 </r>
       <r>    0.7723    0.0000 </r>
       <r>    1.0209    0.0000 </r>
       <r>    2.5177    0.0000 </r>
       <r>    3.2589    0.0000 </r>
      </set>
      <set comment="kpoint 30">
       <r>  -16.6193    1.0000 </r>
       <r>  -14.1885    1.0000 </r>
       <r>  -11.7852    1.0000 </r>
       <r>   -8.1633    1.0000 </r>
       <r>   -7.4980    1.0000 </r>
       <r>   -7.3751    1.0000 </r>
       <r>   -6.1285    1.0000 </r>
       <r>   -5.4473    1.0000 </r>
       <r>   -3.8408    1.0000 </r>
       <r>   -2.6478    1.0000 </r>
       <r>   -0.7761    0.0000 </r>
       <r>   -0.7402    0.0000 </r>
       <r>    1.3167    0.0000 </r>
       <r>    1.6618    0.0000 </r>
       <r>    2.7379    0.0000 </r>
       <r>    3.0209    0.0000 </r>
      </set>
      <set comment="kpoint 31">
       <r>  -16.8410    1.0000 </r>
       <r>  -14.4207    1.0000 </r>
       <r>  -11.6064    1.0000 </r>
       <r>   -7.9550    1.0000 </r>
       <r>   -7.2376    1.0000 </r>
       <r>   -7.1407    1.0000 </r>
       <r>   -6.2780    1.0000 </r>
       <r>   -5.3308    1.0000 </r>
       <r>   -3.8039    1.0000 </r>
       <r>   -2.5341    1.0000 </r>
       <r>   -0.9100    0.0000 </r>
       <r>   -0.3974    0.0000 </r>
       <r>    1.8768    0.0000 </r>
       <r>    2.1735    0.0000 </r>
       <r>    2.2650    0.0000 </r>
       <r>    2.6286    0.0000 </r>
      </set>
      <set comment="kpoint 32">
       <r>  -17.0143    1.0000 </r>
       <r>  -14.6024    1.0000 </r>
       <r>  -11.5063    1.0000 </r>
       <r>   -7.9809    1.0000 </r>
       <r>   -7.0297    1.0000 </r>
       <r>   -6.7705    1.0000 </r>
       <r>   -6.3030    1.0000 </r>
       <r>   -5.0091    1.0000 </r>
       <r>   -3.8102    1.0000 </r>
       <r>   -2.4750    1.0000 </r>
       <r>   -1.0407    0.0000 </r>
       <r>    0.0721    0.0000 </r>
       <r>    1.2251    0.0000 </r>
       <r>    2.0058    0.0000 </r>
       <r>    2.3563    0.0000 </r>
       <r>    2.5950    0.0000 </r>
      </set>
      <set comment="kpoint 33">
       <r>  -17.1384    1.0000 </r>
       <r>  -14.7328    1.0000 </r>
       <r>  -11.4584    1.0000 </r>
       <r>   -8.0445    1.0000 </r>
       <r>   -6.9227    1.0000 </r>
       <r>   -6.6718    1.0000 </r>
       <r>   -5.9924    1.0000 </r>
       <r>   -4.5447    1.0000 </r>
       <r>   -3.8321    1.0000 </r>
       <r>   -2.4562    1.0000 </r>
       <r>   -1.1320    0.0000 </r>
       <r>    0.3596    0.0000 </r>
       <r>    0.5434    0.0000 </r>
       <r>    1.3680    0.0000 </r>
       <r>    2.2903    0.0000 </r>
       <r>    2.4503    0.0000 </r>
      </set>
      <set comment="kpoint 34">
       <r>  -17.2128    1.0000 </r>
       <r>  -14.8114    1.0000 </r>
       <r>  -11.4397    1.0000 </r>
       <r>   -8.0921    1.0000 </r>
       <r>   -6.8867    1.0000 </r>
       <r>   -6.6936    1.0000 </r>
       <r>   -5.6137    1.0000 </r>
       <r>   -4.1136    1.0000 </r>
       <r>   -3.8508    1.0000 </r>
       <r>   -2.4618    1.0000 </r>
       <r>   -1.1862    0.0000 </r>
       <r>   -0.2554    0.0000 </r>
       <r>    0.6962    0.0000 </r>
       <r>    1.0328    0.0000 </r>
       <r>    2.2198    0.0000 </r>
       <r>    2.3679    0.0000 </r>
      </set>
      <set comment="kpoint 35">
       <r>  -17.1732    1.0000 </r>
       <r>  -14.9272    1.0000 </r>
       <r>  -11.4531    1.0000 </r>
       <r>   -8.4622    1.0000 </r>
       <r>   -6.6903    1.0000 </r>
       <r>   -6.4312    1.0000 </r>
       <r>   -5.4090    1.0000 </r>
       <r>   -3.9684    1.0000 </r>
       <r>   -3.5984    1.0000 </r>
       <r>   -2.8760    1.0000 </r>
       <r>   -0.8392    0.0000 </r>
       <r>   -0.4316    0.0000 </r>
       <r>    0.3807    0.0000 </r>
       <r>    1.1108    0.0000 </r>
       <r>    2.3670    0.0000 </r>
       <r>    2.4315    0.0000 </r>
      </set>
      <set comment="kpoint 36">
       <r>  -17.1468    1.0000 </r>
       <r>  -14.9032    1.0000 </r>
       <r>  -11.4585    1.0000 </r>
       <r>   -8.4529    1.0000 </r>
       <r>   -6.6914    1.0000 </r>
       <r>   -6.4255    1.0000 </r>
       <r>   -5.5616    1.0000 </r>
       <r>   -4.1529    1.0000 </r>
       <r>   -3.5823    1.0000 </r>
       <r>   -2.8718    1.0000 </r>
       <r>   -0.8220    0.0000 </r>
       <r>   -0.1929    0.0000 </r>
       <r>    0.6073    0.0000 </r>
       <r>    0.9582    0.0000 </r>
       <r>    2.3913    0.0000 </r>
       <r>    2.4613    0.0000 </r>
      </set>
      <set comment="kpoint 37">
       <r>  -17.0704    1.0000 </r>
       <r>  -14.8280    1.0000 </r>
       <r>  -11.4726    1.0000 </r>
       <r>   -8.4206    1.0000 </r>
       <r>   -6.7051    1.0000 </r>
       <r>   -6.4976    1.0000 </r>
       <r>   -5.8456    1.0000 </r>
       <r>   -4.5998    1.0000 </r>
       <r>   -3.5685    1.0000 </r>
       <r>   -2.8585    1.0000 </r>
       <r>   -0.7806    0.0000 </r>
       <r>    0.4289    0.0000 </r>
       <r>    0.5762    0.0000 </r>
       <r>    1.1976    0.0000 </r>
       <r>    2.4559    0.0000 </r>
       <r>    2.5462    0.0000 </r>
      </set>
      <set comment="kpoint 38">
       <r>  -16.9445    1.0000 </r>
       <r>  -14.7024    1.0000 </r>
       <r>  -11.5086    1.0000 </r>
       <r>   -8.3796    1.0000 </r>
       <r>   -6.8095    1.0000 </r>
       <r>   -6.7743    1.0000 </r>
       <r>   -5.9481    1.0000 </r>
       <r>   -5.0885    1.0000 </r>
       <r>   -3.5735    1.0000 </r>
       <r>   -2.8512    1.0000 </r>
       <r>   -0.7157    0.0000 </r>
       <r>    0.1401    0.0000 </r>
       <r>    1.2795    0.0000 </r>
       <r>    1.8642    0.0000 </r>
       <r>    2.3486    0.0000 </r>
       <r>    2.5663    0.0000 </r>
      </set>
      <set comment="kpoint 39">
       <r>  -16.7695    1.0000 </r>
       <r>  -14.5272    1.0000 </r>
       <r>  -11.5888    1.0000 </r>
       <r>   -8.3701    1.0000 </r>
       <r>   -7.2459    1.0000 </r>
       <r>   -6.9589    1.0000 </r>
       <r>   -5.8711    1.0000 </r>
       <r>   -5.4251    1.0000 </r>
       <r>   -3.6195    1.0000 </r>
       <r>   -2.8649    1.0000 </r>
       <r>   -0.6270    0.0000 </r>
       <r>   -0.2611    0.0000 </r>
       <r>    1.6317    0.0000 </r>
       <r>    2.1547    0.0000 </r>
       <r>    2.4163    0.0000 </r>
       <r>    2.6730    0.0000 </r>
      </set>
      <set comment="kpoint 40">
       <r>  -16.5463    1.0000 </r>
       <r>  -14.3045    1.0000 </r>
       <r>  -11.7406    1.0000 </r>
       <r>   -8.4941    1.0000 </r>
       <r>   -7.6236    1.0000 </r>
       <r>   -7.1922    1.0000 </r>
       <r>   -5.7259    1.0000 </r>
       <r>   -5.5385    1.0000 </r>
       <r>   -3.7302    1.0000 </r>
       <r>   -2.9163    1.0000 </r>
       <r>   -0.5476    0.0000 </r>
       <r>   -0.5137    0.0000 </r>
       <r>    1.0799    0.0000 </r>
       <r>    1.7585    0.0000 </r>
       <r>    2.7279    0.0000 </r>
       <r>    3.1122    0.0000 </r>
      </set>
      <set comment="kpoint 41">
       <r>  -16.2762    1.0000 </r>
       <r>  -14.0388    1.0000 </r>
       <r>  -11.9825    1.0000 </r>
       <r>   -8.8621    1.0000 </r>
       <r>   -7.8669    1.0000 </r>
       <r>   -7.2790    1.0000 </r>
       <r>   -5.5524    1.0000 </r>
       <r>   -5.5153    1.0000 </r>
       <r>   -3.9044    1.0000 </r>
       <r>   -3.0197    1.0000 </r>
       <r>   -0.6767    0.0000 </r>
       <r>   -0.3788    0.0000 </r>
       <r>    0.5335    0.0000 </r>
[...]
       <r>    3.3606    0.0000 </r>
       <r>    3.4768    0.0000 </r>
      </set>
      <set comment="kpoint 161">
       <r>  -15.4601    1.0000 </r>
       <r>  -15.1594    1.0000 </r>
       <r>  -10.8143    1.0000 </r>
       <r>  -10.5098    1.0000 </r>
       <r>   -7.8634    1.0000 </r>
       <r>   -7.7044    1.0000 </r>
       <r>   -5.1693    1.0000 </r>
       <r>   -4.9812    1.0000 </r>
       <r>   -3.8153    1.0000 </r>
       <r>   -3.7549    1.0000 </r>
       <r>    0.2587    0.0000 </r>
       <r>    0.7211    0.0000 </r>
       <r>    1.2038    0.0000 </r>
       <r>    1.4532    0.0000 </r>
       <r>    3.3828    0.0000 </r>
       <r>    3.3938    0.0000 </r>
      </set>
      <set comment="kpoint 162">
       <r>  -15.7099    1.0000 </r>
       <r>  -15.4148    1.0000 </r>
       <r>  -10.7181    1.0000 </r>
       <r>  -10.3969    1.0000 </r>
       <r>   -7.4679    1.0000 </r>
       <r>   -7.3283    1.0000 </r>
       <r>   -5.1251    1.0000 </r>
       <r>   -4.8441    1.0000 </r>
       <r>   -3.7341    1.0000 </r>
       <r>   -3.6269    1.0000 </r>
       <r>    0.3123    0.0000 </r>
       <r>    0.6681    0.0000 </r>
       <r>    1.2601    0.0000 </r>
       <r>    1.5742    0.0000 </r>
       <r>    3.0733    0.0000 </r>
       <r>    3.3128    0.0000 </r>
      </set>
      <set comment="kpoint 163">
       <r>  -15.9182    1.0000 </r>
       <r>  -15.6299    1.0000 </r>
       <r>  -10.7135    1.0000 </r>
       <r>  -10.3881    1.0000 </r>
       <r>   -6.9106    1.0000 </r>
       <r>   -6.7781    1.0000 </r>
       <r>   -5.1765    1.0000 </r>
       <r>   -4.8415    1.0000 </r>
       <r>   -3.6484    1.0000 </r>
       <r>   -3.3980    1.0000 </r>
       <r>    0.4577    0.0000 </r>
       <r>    0.6937    0.0000 </r>
       <r>    1.2321    0.0000 </r>
       <r>    1.5950    0.0000 </r>
       <r>    2.4773    0.0000 </r>
       <r>    2.6876    0.0000 </r>
      </set>
      <set comment="kpoint 164">
       <r>  -16.0818    1.0000 </r>
       <r>  -15.8007    1.0000 </r>
       <r>  -10.7505    1.0000 </r>
       <r>  -10.4274    1.0000 </r>
       <r>   -6.2637    1.0000 </r>
       <r>   -6.1311    1.0000 </r>
       <r>   -5.2523    1.0000 </r>
       <r>   -4.8975    1.0000 </r>
       <r>   -3.5840    1.0000 </r>
       <r>   -3.2240    1.0000 </r>
       <r>    0.6312    0.0000 </r>
       <r>    0.7604    0.0000 </r>
       <r>    1.1365    0.0000 </r>
       <r>    1.4959    0.0000 </r>
       <r>    1.8403    0.0000 </r>
       <r>    1.9673    0.0000 </r>
      </set>
      <set comment="kpoint 165">
       <r>  -16.1986    1.0000 </r>
       <r>  -15.9251    1.0000 </r>
       <r>  -10.7944    1.0000 </r>
       <r>  -10.4757    1.0000 </r>
       <r>   -5.6010    1.0000 </r>
       <r>   -5.4732    1.0000 </r>
       <r>   -5.3108    1.0000 </r>
       <r>   -4.9599    1.0000 </r>
       <r>   -3.5979    1.0000 </r>
       <r>   -3.1552    1.0000 </r>
       <r>    0.5057    0.0000 </r>
       <r>    0.5913    0.0000 </r>
       <r>    1.1150    0.0000 </r>
       <r>    1.2772    0.0000 </r>
       <r>    1.5948    0.0000 </r>
       <r>    1.6164    0.0000 </r>
      </set>
      <set comment="kpoint 166">
       <r>  -16.2676    1.0000 </r>
       <r>  -16.0019    1.0000 </r>
       <r>  -10.8263    1.0000 </r>
       <r>  -10.5122    1.0000 </r>
       <r>   -5.3681    1.0000 </r>
       <r>   -5.0296    1.0000 </r>
       <r>   -5.0020    1.0000 </r>
       <r>   -4.8816    1.0000 </r>
       <r>   -3.7038    1.0000 </r>
       <r>   -3.2018    1.0000 </r>
       <r>    0.1257    0.0000 </r>
       <r>    0.1509    0.0000 </r>
       <r>    1.1799    0.0000 </r>
       <r>    1.3455    0.0000 </r>
       <r>    1.5503    0.0000 </r>
       <r>    1.5895    0.0000 </r>
      </set>
     </set>
    </set>
   </array>
  </eigenvalues>
  <separator name="orbital magnetization" >
   <v name="MAGDIPOLOUT">      0.00000000      0.00000000      0.00000000</v>
  </separator>
  <dos>
   <i name="efermi">     -2.14884223 </i>
   <total>
    <array>
     <dimension dim="1">gridpoints</dimension>
     <dimension dim="2">spin</dimension>
     <field>energy</field>
     <field>total</field>
     <field>integrated</field>
     <set>
      <set comment="spin 1">
       <r>   -18.3020     0.0000     0.0000 </r>
       <r>   -18.2255     0.0000     0.0000 </r>
       <r>   -18.1489     0.0000     0.0000 </r>
       <r>   -18.0724     0.0000     0.0000 </r>
       <r>   -17.9959     0.0000     0.0000 </r>
       <r>   -17.9194     0.0000     0.0000 </r>
       <r>   -17.8429     0.0000     0.0000 </r>
       <r>   -17.7664     0.0000     0.0000 </r>
       <r>   -17.6899     0.0000     0.0000 </r>
       <r>   -17.6134     0.0000     0.0000 </r>
       <r>   -17.5369     0.0000     0.0000 </r>
       <r>   -17.4604     0.0000     0.0000 </r>
       <r>   -17.3838     0.0000     0.0000 </r>
       <r>   -17.3073     0.0000     0.0000 </r>
       <r>   -17.2308     0.3049     0.0233 </r>
       <r>   -17.1543     0.7898     0.0838 </r>
       <r>   -17.0778     0.7276     0.1394 </r>
       <r>   -17.0013     1.0391     0.2189 </r>
       <r>   -16.9248     0.7661     0.2775 </r>
       <r>   -16.8483     0.7532     0.3352 </r>
       <r>   -16.7718     0.9561     0.4083 </r>
       <r>   -16.6953     0.8004     0.4696 </r>
       <r>   -16.6187     1.0096     0.5468 </r>
       <r>   -16.5422     0.5895     0.5919 </r>
       <r>   -16.4657     1.1223     0.6778 </r>
       <r>   -16.3892     0.5803     0.7222 </r>
       <r>   -16.3127     1.0571     0.8031 </r>
       <r>   -16.2362     1.1391     0.8902 </r>
       <r>   -16.1597     0.6897     0.9430 </r>
       <r>   -16.0832     0.6752     0.9946 </r>
       <r>   -16.0067     1.3030     1.0943 </r>
       <r>   -15.9302     0.8575     1.1599 </r>
       <r>   -15.8537     1.0826     1.2428 </r>
       <r>   -15.7771     0.5092     1.2817 </r>
       <r>   -15.7006     0.9473     1.3542 </r>
       <r>   -15.6241     1.5821     1.4752 </r>
       <r>   -15.5476     0.7085     1.5295 </r>
       <r>   -15.4711     0.9919     1.6053 </r>
       <r>   -15.3946     1.2063     1.6976 </r>
       <r>   -15.3181     0.7200     1.7527 </r>
       <r>   -15.2416     1.3111     1.8530 </r>
       <r>   -15.1651     1.3390     1.9555 </r>
       <r>   -15.0886     1.1530     2.0437 </r>
       <r>   -15.0120     1.1441     2.1312 </r>
       <r>   -14.9355     0.9047     2.2005 </r>
       <r>   -14.8590     1.8072     2.3387 </r>
       <r>   -14.7825     2.1426     2.5027 </r>
       <r>   -14.7060     1.0976     2.5866 </r>
       <r>   -14.6295     1.9133     2.7330 </r>
       <r>   -14.5530     1.0238     2.8114 </r>
       <r>   -14.4765     0.7319     2.8674 </r>
       <r>   -14.4000     1.4822     2.9808 </r>
       <r>   -14.3235     1.4995     3.0955 </r>
       <r>   -14.2469     1.2222     3.1890 </r>
       <r>   -14.1704     1.2335     3.2834 </r>
       <r>   -14.0939     1.3682     3.3881 </r>
       <r>   -14.0174     1.0356     3.4673 </r>
       <r>   -13.9409     0.8271     3.5306 </r>
       <r>   -13.8644     2.1898     3.6981 </r>
       <r>   -13.7879     0.7458     3.7552 </r>
       <r>   -13.7114     0.3926     3.7852 </r>
       <r>   -13.6349     0.5093     3.8242 </r>
       <r>   -13.5584     0.5510     3.8663 </r>
       <r>   -13.4818     0.4727     3.9025 </r>
       <r>   -13.4053     0.6984     3.9559 </r>
       <r>   -13.3288     0.1010     3.9637 </r>
       <r>   -13.2523     0.2311     3.9813 </r>
       <r>   -13.1758     0.0951     3.9886 </r>
       <r>   -13.0993     0.1487     4.0000 </r>
       <r>   -13.0228     0.0000     4.0000 </r>
       <r>   -12.9463     0.0081     4.0006 </r>
       <r>   -12.8698     0.1503     4.0121 </r>
       <r>   -12.7933     0.2549     4.0316 </r>
       <r>   -12.7168     0.1673     4.0444 </r>
       <r>   -12.6402     0.3947     4.0746 </r>
       <r>   -12.5637     0.6088     4.1212 </r>
       <r>   -12.4872     0.2823     4.1428 </r>
       <r>   -12.4107     0.5396     4.1841 </r>
       <r>   -12.3342     0.5475     4.2260 </r>
       <r>   -12.2577     0.6305     4.2742 </r>
       <r>   -12.1812     1.6056     4.3970 </r>
       <r>   -12.1047     1.0622     4.4783 </r>
       <r>   -12.0282     1.2055     4.5705 </r>
       <r>   -11.9517     1.1095     4.6554 </r>
       <r>   -11.8751     1.0986     4.7395 </r>
       <r>   -11.7986     1.1162     4.8249 </r>
       <r>   -11.7221     1.5028     4.9399 </r>
       <r>   -11.6456     0.9770     5.0146 </r>
       <r>   -11.5691     1.6620     5.1418 </r>
       <r>   -11.4926     1.4953     5.2562 </r>
       <r>   -11.4161     3.8594     5.5515 </r>
       <r>   -11.3396     2.3480     5.7311 </r>
       <r>   -11.2631     1.2172     5.8242 </r>
       <r>   -11.1866     1.5830     5.9453 </r>
       <r>   -11.1100     0.9486     6.0179 </r>
       <r>   -11.0335     1.5601     6.1373 </r>
       <r>   -10.9570     0.9745     6.2118 </r>
       <r>   -10.8805     0.2529     6.2312 </r>
       <r>   -10.8040     1.1701     6.3207 </r>
       <r>   -10.7275     1.3058     6.4206 </r>
       <r>   -10.6510     0.6407     6.4696 </r>
       <r>   -10.5745     0.5646     6.5128 </r>
       <r>   -10.4980     1.1487     6.6007 </r>
       <r>   -10.4215     0.9559     6.6739 </r>
       <r>   -10.3449     0.9839     6.7491 </r>
       <r>   -10.2684     0.1104     6.7576 </r>
       <r>   -10.1919     0.0343     6.7602 </r>
       <r>   -10.1154     1.4917     6.8743 </r>
       <r>   -10.0389     0.7893     6.9347 </r>
       <r>    -9.9624     0.7077     6.9889 </r>
       <r>    -9.8859     0.4614     7.0242 </r>
       <r>    -9.8094     0.4564     7.0591 </r>
       <r>    -9.7329     0.6534     7.1091 </r>
       <r>    -9.6564     0.7136     7.1637 </r>
       <r>    -9.5799     0.8479     7.2285 </r>
       <r>    -9.5033     0.0239     7.2304 </r>
       <r>    -9.4268     0.3907     7.2603 </r>
       <r>    -9.3503     0.2608     7.2802 </r>
       <r>    -9.2738     1.0564     7.3610 </r>
       <r>    -9.1973     1.0799     7.4437 </r>
       <r>    -9.1208     0.3509     7.4705 </r>
       <r>    -9.0443     0.0290     7.4727 </r>
       <r>    -8.9678     0.0000     7.4727 </r>
       <r>    -8.8913     0.1382     7.4833 </r>
       <r>    -8.8148     1.3555     7.5870 </r>
       <r>    -8.7382     0.5649     7.6302 </r>
       <r>    -8.6617     0.2482     7.6492 </r>
       <r>    -8.5852     0.2072     7.6651 </r>
       <r>    -8.5087     0.0558     7.6693 </r>
       <r>    -8.4322     0.7530     7.7270 </r>
       <r>    -8.3557     0.7699     7.7859 </r>
       <r>    -8.2792     0.1848     7.8000 </r>
       <r>    -8.2027     0.0721     7.8055 </r>
       <r>    -8.1262     1.6720     7.9334 </r>
       <r>    -8.0497     1.7974     8.0710 </r>
       <r>    -7.9731     2.4404     8.2577 </r>
       <r>    -7.8966     2.0424     8.4139 </r>
       <r>    -7.8201     1.9556     8.5636 </r>
       <r>    -7.7436     1.5456     8.6818 </r>
       <r>    -7.6671     2.7622     8.8931 </r>
       <r>    -7.5906     2.2510     9.0654 </r>
       <r>    -7.5141     1.1843     9.1560 </r>
       <r>    -7.4376     1.7932     9.2932 </r>
       <r>    -7.3611     2.2358     9.4642 </r>
       <r>    -7.2846     2.7244     9.6727 </r>
       <r>    -7.2080     3.3852     9.9317 </r>
       <r>    -7.1315     3.5641    10.2044 </r>
       <r>    -7.0550     2.7700    10.4163 </r>
       <r>    -6.9785     2.3377    10.5952 </r>
       <r>    -6.9020     1.3226    10.6964 </r>
       <r>    -6.8255     0.9027    10.7654 </r>
       <r>    -6.7490     1.4157    10.8737 </r>
       <r>    -6.6725     2.5820    11.0713 </r>
       <r>    -6.5960     1.2841    11.1695 </r>
       <r>    -6.5195     1.3602    11.2736 </r>
       <r>    -6.4430     2.3237    11.4514 </r>
       <r>    -6.3664     0.9750    11.5260 </r>
       <r>    -6.2899     1.1725    11.6157 </r>
       <r>    -6.2134     2.3840    11.7981 </r>
       <r>    -6.1369     1.0538    11.8787 </r>
       <r>    -6.0604     1.3932    11.9853 </r>
       <r>    -5.9839     1.9806    12.1368 </r>
       <r>    -5.9074     2.2677    12.3103 </r>
       <r>    -5.8309     1.7245    12.4423 </r>
       <r>    -5.7544     1.2958    12.5414 </r>
       <r>    -5.6779     2.7800    12.7541 </r>
       <r>    -5.6013     3.9350    13.0552 </r>
       <r>    -5.5248     2.9191    13.2785 </r>
       <r>    -5.4483     4.3128    13.6085 </r>
       <r>    -5.3718     4.1245    13.9241 </r>
       <r>    -5.2953     3.0401    14.1567 </r>
       <r>    -5.2188     2.9359    14.3813 </r>
       <r>    -5.1423     3.0922    14.6179 </r>
       <r>    -5.0658     2.6311    14.8192 </r>
       <r>    -4.9893     2.1691    14.9851 </r>
       <r>    -4.9128     2.3643    15.1660 </r>
       <r>    -4.8362     1.6068    15.2890 </r>
       <r>    -4.7597     1.1777    15.3791 </r>
       <r>    -4.6832     0.9863    15.4545 </r>
       <r>    -4.6067     1.1320    15.5411 </r>
       <r>    -4.5302     1.8404    15.6819 </r>
       <r>    -4.4537     1.4675    15.7942 </r>
       <r>    -4.3772     0.4977    15.8323 </r>
       <r>    -4.3007     0.7124    15.8868 </r>
       <r>    -4.2242     1.2492    15.9824 </r>
       <r>    -4.1477     2.8522    16.2006 </r>
       <r>    -4.0711     2.8460    16.4184 </r>
       <r>    -3.9946     2.0825    16.5777 </r>
       <r>    -3.9181     3.1578    16.8193 </r>
       <r>    -3.8416     3.6736    17.1004 </r>
       <r>    -3.7651     3.5965    17.3755 </r>
       <r>    -3.6886     3.2183    17.6218 </r>
       <r>    -3.6121     4.2695    17.9484 </r>
       <r>    -3.5356     3.2091    18.1939 </r>
       <r>    -3.4591     2.5776    18.3911 </r>
       <r>    -3.3826     2.6378    18.5930 </r>
       <r>    -3.3061     4.4809    18.9358 </r>
       <r>    -3.2295     3.5830    19.2099 </r>
       <r>    -3.1530     1.5199    19.3262 </r>
       <r>    -3.0765     0.7716    19.3853 </r>
       <r>    -3.0000     1.0294    19.4640 </r>
       <r>    -2.9235     1.0073    19.5411 </r>
       <r>    -2.8470     1.9702    19.6918 </r>
       <r>    -2.7705     1.2924    19.7907 </r>
       <r>    -2.6940     0.1238    19.8002 </r>
       <r>    -2.6175     0.3118    19.8240 </r>
       <r>    -2.5410     0.3133    19.8480 </r>
       <r>    -2.4644     0.8656    19.9142 </r>
       <r>    -2.3879     0.5584    19.9570 </r>
       <r>    -2.3114     0.1214    19.9662 </r>
       <r>    -2.2349     0.4337    19.9994 </r>
       <r>    -2.1584     0.0076    20.0000 </r>
       <r>    -2.0819     0.0000    20.0000 </r>
       <r>    -2.0054     0.0000    20.0000 </r>
       <r>    -1.9289     0.0000    20.0000 </r>
       <r>    -1.8524     0.0000    20.0000 </r>
       <r>    -1.7759     0.0000    20.0000 </r>
       <r>    -1.6993     0.0000    20.0000 </r>
       <r>    -1.6228     0.0000    20.0000 </r>
       <r>    -1.5463     0.0000    20.0000 </r>
       <r>    -1.4698     0.0000    20.0000 </r>
       <r>    -1.3933     0.0581    20.0044 </r>
       <r>    -1.3168     0.2041    20.0201 </r>
       <r>    -1.2403     0.1347    20.0304 </r>
       <r>    -1.1638     0.6640    20.0812 </r>
       <r>    -1.0873     0.9915    20.1570 </r>
       <r>    -1.0108     1.8632    20.2996 </r>
       <r>    -0.9342     1.7185    20.4310 </r>
       <r>    -0.8577     1.1357    20.5179 </r>
       <r>    -0.7812     2.2119    20.6872 </r>
       <r>    -0.7047     2.1296    20.8501 </r>
       <r>    -0.6282     1.6072    20.9731 </r>
       <r>    -0.5517     1.2754    21.0707 </r>
       <r>    -0.4752     2.1922    21.2384 </r>
       <r>    -0.3987     2.4921    21.4290 </r>
       <r>    -0.3222     2.2221    21.5991 </r>
       <r>    -0.2457     2.4708    21.7881 </r>
       <r>    -0.1692     2.0089    21.9418 </r>
       <r>    -0.0926     2.8610    22.1607 </r>
       <r>    -0.0161     3.1506    22.4017 </r>
       <r>     0.0604     1.8972    22.5469 </r>
       <r>     0.1369     4.3629    22.8807 </r>
       <r>     0.2134     3.4451    23.1443 </r>
       <r>     0.2899     3.1378    23.3843 </r>
       <r>     0.3664     3.0647    23.6188 </r>
       <r>     0.4429     4.6032    23.9710 </r>
       <r>     0.5194     4.6708    24.3284 </r>
       <r>     0.5959     3.9539    24.6309 </r>
       <r>     0.6725     3.9367    24.9321 </r>
       <r>     0.7490     4.3476    25.2647 </r>
       <r>     0.8255     2.5119    25.4569 </r>
       <r>     0.9020     3.9977    25.7628 </r>
       <r>     0.9785     2.5029    25.9543 </r>
       <r>     1.0550     3.2589    26.2036 </r>
       <r>     1.1315     3.0004    26.4332 </r>
       <r>     1.2080     3.2864    26.6846 </r>
       <r>     1.2845     3.1589    26.9263 </r>
       <r>     1.3610     2.3245    27.1041 </r>
       <r>     1.4376     2.0065    27.2576 </r>
       <r>     1.5141     2.5682    27.4541 </r>
       <r>     1.5906     2.8322    27.6708 </r>
       <r>     1.6671     2.4859    27.8610 </r>
       <r>     1.7436     1.1711    27.9506 </r>
       <r>     1.8201     1.7530    28.0848 </r>
       <r>     1.8966     3.1327    28.3244 </r>
       <r>     1.9731     2.8059    28.5391 </r>
       <r>     2.0496     1.7964    28.6766 </r>
       <r>     2.1261     2.0421    28.8328 </r>
       <r>     2.2026     2.5506    29.0279 </r>
       <r>     2.2792     2.3406    29.2070 </r>
       <r>     2.3557     3.1436    29.4475 </r>
       <r>     2.4322     3.2664    29.6974 </r>
       <r>     2.5087     3.1565    29.9390 </r>
       <r>     2.5852     1.9893    30.0912 </r>
       <r>     2.6617     3.4211    30.3529 </r>
       <r>     2.7382     3.0523    30.5864 </r>
       <r>     2.8147     3.3271    30.8410 </r>
       <r>     2.8912     1.8614    30.9834 </r>
       <r>     2.9677     1.3949    31.0901 </r>
       <r>     3.0443     2.2189    31.2599 </r>
       <r>     3.1208     2.0047    31.4133 </r>
       <r>     3.1973     1.7901    31.5502 </r>
       <r>     3.2738     1.6016    31.6728 </r>
       <r>     3.3503     1.5813    31.7937 </r>
       <r>     3.4268     1.0720    31.8758 </r>
       <r>     3.5033     1.0829    31.9586 </r>
       <r>     3.5798     0.2447    31.9773 </r>
       <r>     3.6563     0.2961    32.0000 </r>
       <r>     3.7328     0.0000    32.0000 </r>
       <r>     3.8094     0.0000    32.0000 </r>
       <r>     3.8859     0.0000    32.0000 </r>
       <r>     3.9624     0.0000    32.0000 </r>
       <r>     4.0389     0.0000    32.0000 </r>
       <r>     4.1154     0.0000    32.0000 </r>
       <r>     4.1919     0.0000    32.0000 </r>
       <r>     4.2684     0.0000    32.0000 </r>
       <r>     4.3449     0.0000    32.0000 </r>
       <r>     4.4214     0.0000    32.0000 </r>
       <r>     4.4979     0.0000    32.0000 </r>
       <r>     4.5745     0.0000    32.0000 </r>
       <r>     4.6510     0.0000    32.0000 </r>
      </set>
     </set>
    </array>
   </total>
  </dos>
 </calculation>
 <structure name="finalpos" >
  <crystal>
   <varray name="basis" >
    <v>       3.27228700      -0.02482300       0.00000000 </v>
    <v>      -0.03480700       4.62322000      -0.00005300 </v>
    <v>       0.00000000       0.00000000      20.02439000 </v>
   </varray>
   <i name="volume">    302.92173691 </i>
   <varray name="rec_basis" >
    <v>       0.30561412       0.00230089       0.00000000 </v>
    <v>       0.00164090       0.21631182       0.00000000 </v>
    <v>       0.00000000       0.00000057       0.04993910 </v>
   </varray>
  </crystal>
  <varray name="positions" >
   <v>       0.50293834       0.91121700       0.55255021 </v>
   <v>       0.49706166       0.08878300       0.44744979 </v>
   <v>       0.00293830       0.41121251       0.44744979 </v>
   <v>      -0.00293830       0.58878749       0.55255021 </v>
  </varray>
 </structure>
</modeling>
