<?xml version="1.0" encoding="ISO-8859-1"?>
<modeling>
 <generator>
  <i name="program" type="string">vasp </i>
  <i name="version" type="string">5.4.1  </i>
  <i name="subversion" type="string">24Jun15 (build Nov 20 2020 10:29:34) complex                          parallel </i>
  <i name="platform" type="string">IFC91_ompi </i>
  <i name="date" type="string">2021 09 09 </i>
  <i name="time" type="string">14:54:20 </i>
 </generator>
 <incar>
  <i type="string" name="PREC">a</i>
  <i type="string" name="ALGO"> Normal</i>
  <i type="int" name="ISPIN">     1</i>
  <i type="int" name="ICHARG">     2</i>
  <i type="int" name="NELM">   250</i>
  <i type="int" name="NELMDL">    -5</i>
  <i type="int" name="NELMIN">     6</i>
  <i type="int" name="IBRION">     2</i>
  <i name="EDIFF">      0.00001000</i>
  <i name="EDIFFG">     -0.01000000</i>
  <i type="int" name="NSW">   200</i>
  <i type="int" name="ISIF">     2</i>
  <i name="ENCUT">    520.00000000</i>
  <i name="POTIM">      0.30000000</i>
  <i type="logical" name="LREAL"> F  </i>
  <i type="int" name="ISMEAR">     0</i>
  <i name="SIGMA">      0.02000000</i>
  <i type="logical" name="LWAVE"> F  </i>
  <i type="logical" name="LCHARG"> F  </i>
  <i type="logical" name="LAECHG"> F  </i>
  <v type="int" name="KPOINT_BSE">    -1     0     0     0</v>
  <i type="int" name="NELM">   250</i>
 </incar>
 <kpoints>
  <generation param="Gamma">
   <v type="int" name="divisions">      15       13        1 </v>
   <v name="usershift">      0.00000000       0.00000000       0.00000000 </v>
   <v name="genvec1">      0.06666667      -0.00000000       0.00000000 </v>
   <v name="genvec2">      0.00000000       0.07692308       0.00000000 </v>
   <v name="genvec3">      0.00000000       0.00000000       1.00000000 </v>
   <v name="shift">      0.00000000       0.00000000       0.00000000 </v>
  </generation>
  <varray name="kpointlist" >
   <v>       0.00000000       0.00000000       0.00000000 </v>
   <v>       0.06666667       0.00000000       0.00000000 </v>
   <v>       0.13333333       0.00000000       0.00000000 </v>
   <v>       0.20000000       0.00000000       0.00000000 </v>
   <v>       0.26666667      -0.00000000       0.00000000 </v>
   <v>       0.33333333       0.00000000       0.00000000 </v>
   <v>       0.40000000       0.00000000       0.00000000 </v>
   <v>       0.46666667       0.00000000       0.00000000 </v>
   <v>      -0.00000000       0.07692308       0.00000000 </v>
   <v>       0.06666667       0.07692308       0.00000000 </v>
   <v>       0.13333333       0.07692308       0.00000000 </v>
   <v>       0.20000000       0.07692308       0.00000000 </v>
   <v>       0.26666667       0.07692308       0.00000000 </v>
   <v>       0.33333333       0.07692308       0.00000000 </v>
   <v>       0.40000000       0.07692308       0.00000000 </v>
   <v>       0.46666667       0.07692308       0.00000000 </v>
   <v>      -0.46666667       0.07692308       0.00000000 </v>
   <v>      -0.40000000       0.07692308       0.00000000 </v>
   <v>      -0.33333333       0.07692308       0.00000000 </v>
   <v>      -0.26666667       0.07692308       0.00000000 </v>
   <v>      -0.20000000       0.07692308       0.00000000 </v>
   <v>      -0.13333333       0.07692308       0.00000000 </v>
   <v>      -0.06666667       0.07692308       0.00000000 </v>
   <v>      -0.00000000       0.15384615       0.00000000 </v>
   <v>       0.06666667       0.15384615       0.00000000 </v>
   <v>       0.13333333       0.15384615       0.00000000 </v>
   <v>       0.20000000       0.15384615       0.00000000 </v>
   <v>       0.26666667       0.15384615       0.00000000 </v>
   <v>       0.33333333       0.15384615       0.00000000 </v>
   <v>       0.40000000       0.15384615       0.00000000 </v>
   <v>       0.46666667       0.15384615       0.00000000 </v>
   <v>      -0.46666667       0.15384615       0.00000000 </v>
   <v>      -0.40000000       0.15384615       0.00000000 </v>
   <v>      -0.33333333       0.15384615       0.00000000 </v>
   <v>      -0.26666667       0.15384615       0.00000000 </v>
   <v>      -0.20000000       0.15384615       0.00000000 </v>
   <v>      -0.13333333       0.15384615       0.00000000 </v>
   <v>      -0.06666667       0.15384615       0.00000000 </v>
   <v>       0.00000000       0.23076923       0.00000000 </v>
   <v>       0.06666667       0.23076923       0.00000000 </v>
   <v>       0.13333333       0.23076923       0.00000000 </v>
   <v>       0.20000000       0.23076923       0.00000000 </v>
   <v>       0.26666667       0.23076923       0.00000000 </v>
   <v>       0.33333333       0.23076923       0.00000000 </v>
   <v>       0.40000000       0.23076923       0.00000000 </v>
   <v>       0.46666667       0.23076923       0.00000000 </v>
   <v>      -0.46666667       0.23076923       0.00000000 </v>
   <v>      -0.40000000       0.23076923       0.00000000 </v>
   <v>      -0.33333333       0.23076923       0.00000000 </v>
   <v>      -0.26666667       0.23076923       0.00000000 </v>
   <v>      -0.20000000       0.23076923       0.00000000 </v>
   <v>      -0.13333333       0.23076923       0.00000000 </v>
   <v>      -0.06666667       0.23076923       0.00000000 </v>
   <v>       0.00000000       0.30769231       0.00000000 </v>
   <v>       0.06666667       0.30769231       0.00000000 </v>
   <v>       0.13333333       0.30769231       0.00000000 </v>
   <v>       0.20000000       0.30769231       0.00000000 </v>
   <v>       0.26666667       0.30769231       0.00000000 </v>
   <v>       0.33333333       0.30769231       0.00000000 </v>
   <v>       0.40000000       0.30769231       0.00000000 </v>
   <v>       0.46666667       0.30769231       0.00000000 </v>
   <v>      -0.46666667       0.30769231       0.00000000 </v>
   <v>      -0.40000000       0.30769231       0.00000000 </v>
   <v>      -0.33333333       0.30769231       0.00000000 </v>
   <v>      -0.26666667       0.30769231       0.00000000 </v>
   <v>      -0.20000000       0.30769231       0.00000000 </v>
   <v>      -0.13333333       0.30769231       0.00000000 </v>
   <v>      -0.06666667       0.30769231       0.00000000 </v>
   <v>       0.00000000       0.38461538       0.00000000 </v>
   <v>       0.06666667       0.38461538       0.00000000 </v>
   <v>       0.13333333       0.38461538       0.00000000 </v>
   <v>       0.20000000       0.38461538       0.00000000 </v>
   <v>       0.26666667       0.38461538       0.00000000 </v>
   <v>       0.33333333       0.38461538       0.00000000 </v>
   <v>       0.40000000       0.38461538       0.00000000 </v>
   <v>       0.46666667       0.38461538       0.00000000 </v>
   <v>      -0.46666667       0.38461538       0.00000000 </v>
   <v>      -0.40000000       0.38461538       0.00000000 </v>
   <v>      -0.33333333       0.38461538       0.00000000 </v>
   <v>      -0.26666667       0.38461538       0.00000000 </v>
   <v>      -0.20000000       0.38461538       0.00000000 </v>
   <v>      -0.13333333       0.38461538       0.00000000 </v>
   <v>      -0.06666667       0.38461538       0.00000000 </v>
   <v>       0.00000000       0.46153846       0.00000000 </v>
   <v>       0.06666667       0.46153846       0.00000000 </v>
   <v>       0.13333333       0.46153846       0.00000000 </v>
   <v>       0.20000000       0.46153846       0.00000000 </v>
   <v>       0.26666667       0.46153846       0.00000000 </v>
   <v>       0.33333333       0.46153846       0.00000000 </v>
   <v>       0.40000000       0.46153846       0.00000000 </v>
   <v>       0.46666667       0.46153846       0.00000000 </v>
   <v>      -0.46666667       0.46153846       0.00000000 </v>
   <v>      -0.40000000       0.46153846       0.00000000 </v>
   <v>      -0.33333333       0.46153846       0.00000000 </v>
   <v>      -0.26666667       0.46153846       0.00000000 </v>
   <v>      -0.20000000       0.46153846       0.00000000 </v>
   <v>      -0.13333333       0.46153846       0.00000000 </v>
   <v>      -0.06666667       0.46153846       0.00000000 </v>
  </varray>
  <varray name="weights" >
   <v>       0.00512821 </v>
   <v>       0.01025641 </v>
   <v>       0.01025641 </v>
   <v>       0.01025641 </v>
   <v>       0.01025641 </v>
   <v>       0.01025641 </v>
   <v>       0.01025641 </v>
   <v>       0.01025641 </v>
   <v>       0.01025641 </v>
   <v>       0.01025641 </v>
   <v>       0.01025641 </v>
   <v>       0.01025641 </v>
   <v>       0.01025641 </v>
   <v>       0.01025641 </v>
   <v>       0.01025641 </v>
   <v>       0.01025641 </v>
   <v>       0.01025641 </v>
   <v>       0.01025641 </v>
   <v>       0.01025641 </v>
   <v>       0.01025641 </v>
   <v>       0.01025641 </v>
   <v>       0.01025641 </v>
   <v>       0.01025641 </v>
   <v>       0.01025641 </v>
   <v>       0.01025641 </v>
   <v>       0.01025641 </v>
   <v>       0.01025641 </v>
   <v>       0.01025641 </v>
   <v>       0.01025641 </v>
   <v>       0.01025641 </v>
   <v>       0.01025641 </v>
   <v>       0.01025641 </v>
   <v>       0.01025641 </v>
   <v>       0.01025641 </v>
   <v>       0.01025641 </v>
   <v>       0.01025641 </v>
   <v>       0.01025641 </v>
   <v>       0.01025641 </v>
   <v>       0.01025641 </v>
   <v>       0.01025641 </v>
   <v>       0.01025641 </v>
   <v>       0.01025641 </v>
   <v>       0.01025641 </v>
   <v>       0.01025641 </v>
   <v>       0.01025641 </v>
   <v>       0.01025641 </v>
   <v>       0.01025641 </v>
   <v>       0.01025641 </v>
   <v>       0.01025641 </v>
   <v>       0.01025641 </v>
   <v>       0.01025641 </v>
   <v>       0.01025641 </v>
   <v>       0.01025641 </v>
   <v>       0.01025641 </v>
   <v>       0.01025641 </v>
   <v>       0.01025641 </v>
   <v>       0.01025641 </v>
   <v>       0.01025641 </v>
   <v>       0.01025641 </v>
   <v>       0.01025641 </v>
   <v>       0.01025641 </v>
   <v>       0.01025641 </v>
   <v>       0.01025641 </v>
   <v>       0.01025641 </v>
   <v>       0.01025641 </v>
   <v>       0.01025641 </v>
   <v>       0.01025641 </v>
   <v>       0.01025641 </v>
   <v>       0.01025641 </v>
   <v>       0.01025641 </v>
   <v>       0.01025641 </v>
   <v>       0.01025641 </v>
   <v>       0.01025641 </v>
   <v>       0.01025641 </v>
   <v>       0.01025641 </v>
   <v>       0.01025641 </v>
   <v>       0.01025641 </v>
   <v>       0.01025641 </v>
   <v>       0.01025641 </v>
   <v>       0.01025641 </v>
   <v>       0.01025641 </v>
   <v>       0.01025641 </v>
   <v>       0.01025641 </v>
   <v>       0.01025641 </v>
   <v>       0.01025641 </v>
   <v>       0.01025641 </v>
   <v>       0.01025641 </v>
   <v>       0.01025641 </v>
   <v>       0.01025641 </v>
   <v>       0.01025641 </v>
   <v>       0.01025641 </v>
   <v>       0.01025641 </v>
   <v>       0.01025641 </v>
   <v>       0.01025641 </v>
   <v>       0.01025641 </v>
   <v>       0.01025641 </v>
   <v>       0.01025641 </v>
   <v>       0.01025641 </v>
  </varray>
 </kpoints>
 <parameters>
  <separator name="general" >
   <i type="string" name="SYSTEM">unknown system</i>
   <i type="logical" name="LCOMPAT"> F  </i>
  </separator>
  <separator name="electronic" >
   <i type="string" name="PREC">a</i>
   <i name="ENMAX">    520.00000000</i>
   <i name="ENAUG">    531.35600000</i>
   <i name="EDIFF">      0.00001000</i>
   <i type="int" name="IALGO">    38</i>
   <i type="int" name="IWAVPR">    11</i>
   <i type="int" name="NBANDS">    32</i>
   <i name="NELECT">     52.00000000</i>
   <i type="int" name="TURBO">     0</i>
   <i type="int" name="IRESTART">     0</i>
   <i type="int" name="NREBOOT">     0</i>
   <i type="int" name="NMIN">     0</i>
   <i name="EREF">      0.00000000</i>
   <separator name="electronic smearing" >
    <i type="int" name="ISMEAR">     0</i>
    <i name="SIGMA">      0.02000000</i>
    <i name="KSPACING">      0.50000000</i>
    <i type="logical" name="KGAMMA"> T  </i>
   </separator>
   <separator name="electronic projectors" >
    <i type="logical" name="LREAL"> F  </i>
    <v name="ROPT">      0.00000000      0.00000000</v>
    <i type="int" name="LMAXPAW">  -100</i>
    <i type="int" name="LMAXMIX">     2</i>
    <i type="logical" name="NLSPLINE"> F  </i>
   </separator>
   <separator name="electronic startup" >
    <i type="int" name="ISTART">     0</i>
    <i type="int" name="ICHARG">     2</i>
    <i type="int" name="INIWAV">     1</i>
   </separator>
   <separator name="electronic spin" >
    <i type="int" name="ISPIN">     1</i>
    <i type="logical" name="LNONCOLLINEAR"> F  </i>
    <v name="MAGMOM">      1.00000000      1.00000000      1.00000000      1.00000000      1.00000000      1.00000000</v>
    <i name="NUPDOWN">     -1.00000000</i>
    <i type="logical" name="LSORBIT"> F  </i>
    <v name="SAXIS">      0.00000000      0.00000000      1.00000000</v>
    <i type="logical" name="LSPIRAL"> F  </i>
    <v name="QSPIRAL">      0.00000000      0.00000000      0.00000000</v>
    <i type="logical" name="LZEROZ"> F  </i>
   </separator>
   <separator name="electronic exchange-correlation" >
    <i type="logical" name="LASPH"> F  </i>
    <i type="logical" name="LMETAGGA"> F  </i>
   </separator>
   <separator name="electronic convergence" >
    <i type="int" name="NELM">   250</i>
    <i type="int" name="NELMDL">    -5</i>
    <i type="int" name="NELMIN">     6</i>
    <i name="ENINI">    520.00000000</i>
    <separator name="electronic convergence detail" >
     <i type="logical" name="LDIAG"> T  </i>
     <i type="logical" name="LSUBROT"> F  </i>
     <i name="WEIMIN">      0.00100000</i>
     <i name="EBREAK">      0.00000008</i>
     <i name="DEPER">      0.30000000</i>
     <i type="int" name="NRMM">     4</i>
     <i name="TIME">      0.40000000</i>
    </separator>
   </separator>
   <separator name="electronic mixer" >
    <i name="AMIX">      0.40000000</i>
    <i name="BMIX">      1.00000000</i>
    <i name="AMIN">      0.10000000</i>
    <i name="AMIX_MAG">      1.60000000</i>
    <i name="BMIX_MAG">      1.00000000</i>
    <separator name="electronic mixer details" >
     <i type="int" name="IMIX">     4</i>
     <i type="logical" name="MIXFIRST"> F  </i>
     <i type="int" name="MAXMIX">   -45</i>
     <i name="WC">    100.00000000</i>
     <i type="int" name="INIMIX">     1</i>
     <i type="int" name="MIXPRE">     1</i>
     <i type="int" name="MREMOVE">     5</i>
    </separator>
   </separator>
   <separator name="electronic dipolcorrection" >
    <i type="logical" name="LDIPOL"> F  </i>
    <i type="logical" name="LMONO"> F  </i>
    <i type="int" name="IDIPOL">     0</i>
    <i name="EPSILON">      1.00000000</i>
    <v name="DIPOL">   -100.00000000   -100.00000000   -100.00000000</v>
    <i name="EFIELD">      0.00000000</i>
   </separator>
  </separator>
  <separator name="grids" >
   <i type="int" name="NGX">    36</i>
   <i type="int" name="NGY">    42</i>
   <i type="int" name="NGZ">   140</i>
   <i type="int" name="NGXF">    72</i>
   <i type="int" name="NGYF">    84</i>
   <i type="int" name="NGZF">   280</i>
   <i type="logical" name="ADDGRID"> F  </i>
  </separator>
  <separator name="ionic" >
   <i type="int" name="NSW">   200</i>
   <i type="int" name="IBRION">     2</i>
   <i type="int" name="ISIF">     2</i>
   <i name="PSTRESS">      0.00000000</i>
   <i name="EDIFFG">     -0.01000000</i>
   <i type="int" name="NFREE">     1</i>
   <i name="POTIM">      0.30000000</i>
   <i name="SMASS">     -3.00000000</i>
   <i name="SCALEE">      1.00000000</i>
  </separator>
  <separator name="ionic md" >
   <i name="TEBEG">      0.00010000</i>
   <i name="TEEND">      0.00010000</i>
   <i type="int" name="NBLOCK">     1</i>
   <i type="int" name="KBLOCK">   200</i>
   <i type="int" name="NPACO">   256</i>
   <i name="APACO">     16.00000000</i>
  </separator>
  <separator name="symmetry" >
   <i type="int" name="ISYM">     2</i>
   <i name="SYMPREC">      0.00001000</i>
  </separator>
  <separator name="dos" >
   <i type="logical" name="LORBIT"> F  </i>
   <v name="RWIGS">     -1.00000000     -1.00000000</v>
   <i type="int" name="NEDOS">   301</i>
   <i name="EMIN">     10.00000000</i>
   <i name="EMAX">    -10.00000000</i>
   <i name="EFERMI">      0.00000000</i>
  </separator>
  <separator name="writing" >
   <i type="int" name="NWRITE">     2</i>
   <i type="logical" name="LWAVE"> F  </i>
   <i type="logical" name="LCHARG"> F  </i>
   <i type="logical" name="LPARD"> F  </i>
   <i type="logical" name="LVTOT"> F  </i>
   <i type="logical" name="LVHAR"> F  </i>
   <i type="logical" name="LELF"> F  </i>
   <i type="logical" name="LOPTICS"> F  </i>
   <v name="STM">      0.00000000      0.00000000      0.00000000      0.00000000      0.00000000      0.00000000      0.00000000</v>
  </separator>
  <separator name="performance" >
   <i type="int" name="NPAR">     4</i>
   <i type="int" name="NSIM">     4</i>
   <i type="int" name="NBLK">    -1</i>
   <i type="logical" name="LPLANE"> T  </i>
   <i type="logical" name="LSCALAPACK"> T  </i>
   <i type="logical" name="LSCAAWARE"> F  </i>
   <i type="logical" name="LSCALU"> F  </i>
   <i type="logical" name="LASYNC"> F  </i>
   <i type="logical" name="LORBITALREAL"> F  </i>
  </separator>
  <separator name="miscellaneous" >
   <i type="int" name="IDIOT">     3</i>
   <i type="logical" name="LMUSIC"> F  </i>
   <v name="POMASS">     72.61000000     78.96000000</v>
   <v name="DARWINR">      0.00000000      0.00000000</v>
   <v name="DARWINV">      1.00000000      1.00000000</v>
   <i type="logical" name="LCORR"> T  </i>
  </separator>
  <i type="logical" name="GGA_COMPAT"> T  </i>
  <i type="logical" name="LBERRY"> F  </i>
  <i type="int" name="ICORELEVEL">     0</i>
  <i type="logical" name="LDAU"> F  </i>
  <i type="int" name="I_CONSTRAINED_M">     0</i>
  <separator name="electronic exchange-correlation" >
   <i type="string" name="GGA">--</i>
   <i type="int" name="VOSKOWN">     0</i>
   <i type="logical" name="LHFCALC"> F  </i>
   <i type="string" name="PRECFOCK"></i>
   <i type="logical" name="LSYMGRAD"> F  </i>
   <i type="logical" name="LHFONE"> F  </i>
   <i type="logical" name="LRHFCALC"> F  </i>
   <i type="logical" name="LTHOMAS"> F  </i>
   <i type="logical" name="LMODELHF"> F  </i>
   <i name="ENCUT4O">     -1.00000000</i>
   <i type="int" name="EXXOEP">     0</i>
   <i type="int" name="FOURORBIT">     0</i>
   <i name="AEXX">      0.00000000</i>
   <i name="HFALPHA">      0.00000000</i>
   <i name="MCALPHA">      0.00000000</i>
   <i name="ALDAX">      1.00000000</i>
   <i name="AGGAX">      1.00000000</i>
   <i name="ALDAC">      1.00000000</i>
   <i name="AGGAC">      1.00000000</i>
   <i type="int" name="NKREDX">     1</i>
   <i type="int" name="NKREDY">     1</i>
   <i type="int" name="NKREDZ">     1</i>
   <i type="logical" name="SHIFTRED"> F  </i>
   <i type="logical" name="ODDONLY"> F  </i>
   <i type="logical" name="EVENONLY"> F  </i>
   <i type="int" name="LMAXFOCK">     0</i>
   <i type="int" name="NMAXFOCKAE">     0</i>
   <i type="logical" name="LFOCKAEDFT"> F  </i>
   <i name="HFSCREEN">      0.00000000</i>
   <i name="HFSCREENC">      0.00000000</i>
   <i type="int" name="NBANDSGWLOW">     0</i>
  </separator>
  <separator name="vdW DFT" >
   <i type="logical" name="LUSE_VDW"> F  </i>
   <i name="Zab_VDW">     -0.84910000</i>
   <i name="PARAM1">      0.12340000</i>
   <i name="PARAM2">      1.00000000</i>
   <i name="PARAM3">      0.00000000</i>
  </separator>
  <separator name="model GW" >
   <i type="int" name="MODEL_GW">     0</i>
   <i name="MODEL_EPS0">     49.41319615</i>
   <i name="MODEL_ALPHA">      1.00000000</i>
  </separator>
  <separator name="linear response parameters" >
   <i type="logical" name="LEPSILON"> F  </i>
   <i type="logical" name="LRPA"> F  </i>
   <i type="logical" name="LNABLA"> F  </i>
   <i type="logical" name="LVEL"> F  </i>
   <i type="int" name="KINTER">     0</i>
   <i name="CSHIFT">      0.10000000</i>
   <i name="OMEGAMAX">     -1.00000000</i>
   <i name="DEG_THRESHOLD">      0.00200000</i>
  </separator>
  <separator name="orbital magnetization" >
   <i type="logical" name="NUCIND"> F  </i>
   <v name="MAGPOS">      0.00000000      0.00000000      0.00000000</v>
   <i type="logical" name="LNICSALL"> T  </i>
   <i type="logical" name="ORBITALMAG"> F  </i>
   <i type="logical" name="LMAGBLOCH"> F  </i>
   <i type="logical" name="LCHIMAG"> F  </i>
   <i type="logical" name="LGAUGE"> T  </i>
   <i type="int" name="MAGATOM">     0</i>
   <v name="MAGDIPOL">      0.00000000      0.00000000      0.00000000</v>
   <v name="AVECCONST">      0.00000000      0.00000000      0.00000000</v>
  </separator>
  <separator name="response functions" >
   <i type="logical" name="LADDER"> F  </i>
   <i type="logical" name="LFXC"> F  </i>
   <i type="logical" name="LHARTREE"> T  </i>
   <i type="int" name="IBSE">     0</i>
   <v type="int" name="KPOINT">    -1     0     0     0</v>
   <i type="logical" name="LTCTE"> F  </i>
   <i type="logical" name="LTETE"> F  </i>
   <i type="logical" name="LTRIPLET"> F  </i>
   <i type="logical" name="LFXCEPS"> F  </i>
   <i type="logical" name="LFXHEG"> F  </i>
   <i type="int" name="NATURALO">     0</i>
   <i type="logical" name="L2ORDER"> F  </i>
   <i type="logical" name="LUSEW"> F  </i>
   <i name="ENCUTGW">     -2.00000000</i>
   <i name="ENCUTGWSOFT">     -2.00000000</i>
   <i name="ENCUTLF">     -1.00000000</i>
   <i type="int" name="LMAXMP2">    -1</i>
   <i name="SCISSOR">      0.00000000</i>
   <i type="int" name="NOMEGA">     0</i>
   <i type="int" name="NOMEGAR">     0</i>
   <i type="int" name="NBANDSGW">    -1</i>
   <i type="int" name="NBANDSO">    -1</i>
   <i type="int" name="NBANDSV">    -1</i>
   <i type="int" name="NELM">   250</i>
   <i type="int" name="NELMHF">     1</i>
   <i type="int" name="DIM">     3</i>
   <i type="int" name="ANTIRES">     0</i>
   <i name="OMEGAMAX">    -30.00000000</i>
   <i name="OMEGAMIN">    -30.00000000</i>
   <i name="OMEGATL">   -200.00000000</i>
   <i type="int" name="OMEGAGRID">     0</i>
   <i name="CSHIFT">     -0.10000000</i>
   <i type="logical" name="SELFENERGY"> F  </i>
   <i type="logical" name="LSPECTRAL"> F  </i>
   <i type="logical" name="LSPECTRALGW"> F  </i>
   <i type="logical" name="LSINGLES"> F  </i>
   <i type="logical" name="LFERMIGW"> F  </i>
   <i type="logical" name="ODDONLYGW"> F  </i>
   <i type="logical" name="EVENONLYGW"> F  </i>
   <i type="int" name="NKREDLFX">     1</i>
   <i type="int" name="NKREDLFY">     1</i>
   <i type="int" name="NKREDLFZ">     1</i>
   <i type="int" name="MAXMEM">  1800</i>
   <i type="int" name="TELESCOPE">     0</i>
   <i type="int" name="TAUPAR">     1</i>
   <i type="int" name="OMEGAPAR">    -1</i>
   <i name="LAMBDA">      1.00000000</i>
  </separator>
  <separator name="External order field" >
   <i name="OFIELD_KAPPA">      0.00000000</i>
   <v name="OFIELD_K">      0.00000000      0.00000000      0.00000000</v>
   <i name="OFIELD_Q6_NEAR">      0.00000000</i>
   <i name="OFIELD_Q6_FAR">      0.00000000</i>
   <i name="OFIELD_A">      0.00000000</i>
  </separator>
 </parameters>
 <atominfo>
  <atoms>       6 </atoms>
  <types>       2 </types>
  <array name="atoms" >
   <dimension dim="1">ion</dimension>
   <field type="string">element</field>
   <field type="int">atomtype</field>
   <set>
    <rc><c>Ge</c><c>   1</c></rc>
    <rc><c>Ge</c><c>   1</c></rc>
    <rc><c>Se</c><c>   2</c></rc>
    <rc><c>Se</c><c>   2</c></rc>
    <rc><c>Se</c><c>   2</c></rc>
    <rc><c>Se</c><c>   2</c></rc>
   </set>
  </array>
  <array name="atomtypes" >
   <dimension dim="1">type</dimension>
   <field type="int">atomspertype</field>
   <field type="string">element</field>
   <field>mass</field>
   <field>valence</field>
   <field type="string">pseudopotential</field>
   <set>
    <rc><c>   2</c><c>Ge</c><c>     72.61000000</c><c>     14.00000000</c><c>  PAW_PBE Ge_d 03Jul2007                </c></rc>
    <rc><c>   4</c><c>Se</c><c>     78.96000000</c><c>      6.00000000</c><c>  PAW_PBE Se 06Sep2000                  </c></rc>
   </set>
  </array>
 </atominfo>
 <structure name="initialpos" >
  <crystal>
   <varray name="basis" >
    <v>       4.90601600       0.02453100       0.00000000 </v>
    <v>       0.02785600       5.57113200       0.00000000 </v>
    <v>       0.00000000       0.00000000      18.07929100 </v>
   </varray>
   <i name="volume">    494.13196151 </i>
   <varray name="rec_basis" >
    <v>       0.20383647      -0.00101919       0.00000000 </v>
    <v>      -0.00089754       0.17950122       0.00000000 </v>
    <v>       0.00000000       0.00000000       0.05531190 </v>
   </varray>
  </crystal>
  <varray name="positions" >
   <v>       0.50000000       0.50000000       0.50000000 </v>
   <v>       0.00000000       0.00000000       0.50000000 </v>
   <v>       0.25000000       0.25000000       0.41502600 </v>
   <v>       0.75000000       0.75000000       0.41502600 </v>
   <v>       0.75000000       0.25000000       0.58497400 </v>
   <v>       0.25000000       0.75000000       0.58497400 </v>
  </varray>
 </structure>
 <calculation>
  <scstep>
   <time name="dav">    2.82    2.82</time>
   <time name="total">    2.86    2.86</time>
   <energy>
    <i name="alphaZ">     46.48765761 </i>
    <i name="ewald">   4982.39063471 </i>
    <i name="hartreedc">  -9769.67457009 </i>
    <i name="XCdc">    142.44891302 </i>
    <i name="pawpsdc">   4514.43351212 </i>
    <i name="pawaedc">  -5329.26418529 </i>
    <i name="eentropy">     -0.00043391 </i>
    <i name="bandstr">   -371.36466653 </i>
    <i name="atom">   6220.98622430 </i>
    <i name="e_fr_energy">    436.44308593 </i>
    <i name="e_wo_entrp">    436.44351984 </i>
    <i name="e_0_energy">    436.44330289 </i>
   </energy>
  </scstep>
  <scstep>
   <time name="dav">    2.99    2.99</time>
   <time name="total">    2.99    3.00</time>
   <energy>
    <i name="e_fr_energy">     45.64599936 </i>
    <i name="e_wo_entrp">     45.64636765 </i>
    <i name="e_0_energy">     45.64618351 </i>
   </energy>
  </scstep>
  <scstep>
   <time name="dav">    3.25    3.25</time>
   <time name="total">    3.25    3.25</time>
   <energy>
    <i name="e_fr_energy">    -21.48029959 </i>
    <i name="e_wo_entrp">    -21.48029959 </i>
    <i name="e_0_energy">    -21.48029959 </i>
   </energy>
  </scstep>
  <scstep>
   <time name="dav">    2.90    2.90</time>
   <time name="total">    2.90    2.90</time>
   <energy>
    <i name="e_fr_energy">    -24.75461723 </i>
    <i name="e_wo_entrp">    -24.75461723 </i>
    <i name="e_0_energy">    -24.75461723 </i>
   </energy>
  </scstep>
  <scstep>
   <time name="dav">    3.43    3.43</time>
   <time name="total">    3.58    3.58</time>
   <energy>
    <i name="e_fr_energy">    -24.86270441 </i>
    <i name="e_wo_entrp">    -24.86270441 </i>
    <i name="e_0_energy">    -24.86270441 </i>
   </energy>
  </scstep>
  <scstep>
   <time name="dav">    3.33    3.33</time>
   <time name="total">    3.50    3.51</time>
   <energy>
    <i name="e_fr_energy">    -24.36227586 </i>
    <i name="e_wo_entrp">    -24.36227586 </i>
    <i name="e_0_energy">    -24.36227586 </i>
   </energy>
  </scstep>
  <scstep>
   <time name="dav">    3.03    3.03</time>
   <time name="total">    3.20    3.20</time>
   <energy>
    <i name="e_fr_energy">    -24.26667218 </i>
    <i name="e_wo_entrp">    -24.26667218 </i>
    <i name="e_0_energy">    -24.26667218 </i>
   </energy>
  </scstep>
  <scstep>
   <time name="dav">    3.18    3.19</time>
   <time name="total">    3.36    3.36</time>
   <energy>
    <i name="e_fr_energy">    -24.26080631 </i>
    <i name="e_wo_entrp">    -24.26080631 </i>
    <i name="e_0_energy">    -24.26080631 </i>
   </energy>
  </scstep>
  <scstep>
   <time name="dav">    3.23    3.23</time>
   <time name="total">    3.40    3.40</time>
   <energy>
    <i name="e_fr_energy">    -24.26027378 </i>
    <i name="e_wo_entrp">    -24.26027378 </i>
    <i name="e_0_energy">    -24.26027378 </i>
   </energy>
  </scstep>
  <scstep>
   <time name="dav">    3.39    3.39</time>
   <time name="total">    3.56    3.56</time>
   <energy>
    <i name="e_fr_energy">    -24.26004537 </i>
    <i name="e_wo_entrp">    -24.26004537 </i>
    <i name="e_0_energy">    -24.26004537 </i>
   </energy>
  </scstep>
  <scstep>
   <time name="dav">    2.76    2.76</time>
   <time name="total">    2.93    2.93</time>
   <energy>
    <i name="e_fr_energy">    -24.25984044 </i>
    <i name="e_wo_entrp">    -24.25984044 </i>
    <i name="e_0_energy">    -24.25984044 </i>
   </energy>
  </scstep>
  <scstep>
   <time name="dav">    2.70    2.70</time>
   <time name="total">    2.87    2.87</time>
   <energy>
    <i name="e_fr_energy">    -24.25996819 </i>
    <i name="e_wo_entrp">    -24.25996819 </i>
    <i name="e_0_energy">    -24.25996819 </i>
   </energy>
  </scstep>
  <scstep>
   <time name="dav">    2.65    2.65</time>
   <time name="total">    2.82    2.82</time>
   <energy>
    <i name="e_fr_energy">    -24.26023445 </i>
    <i name="e_wo_entrp">    -24.26023445 </i>
    <i name="e_0_energy">    -24.26023445 </i>
   </energy>
  </scstep>
  <scstep>
   <time name="dav">    2.50    2.50</time>
   <time name="total">    2.68    2.68</time>
   <energy>
    <i name="e_fr_energy">    -24.26033736 </i>
    <i name="e_wo_entrp">    -24.26033736 </i>
    <i name="e_0_energy">    -24.26033736 </i>
   </energy>
  </scstep>
  <scstep>
   <time name="dav">    2.46    2.46</time>
   <time name="total">    2.63    2.63</time>
   <energy>
    <i name="e_fr_energy">    -24.26039385 </i>
    <i name="e_wo_entrp">    -24.26039385 </i>
    <i name="e_0_energy">    -24.26039385 </i>
   </energy>
  </scstep>
  <scstep>
   <time name="dav">    2.34    2.35</time>
   <time name="total">    2.52    2.52</time>
   <energy>
    <i name="e_fr_energy">    -24.26044462 </i>
    <i name="e_wo_entrp">    -24.26044462 </i>
    <i name="e_0_energy">    -24.26044462 </i>
   </energy>
  </scstep>
  <scstep>
   <time name="dav">    2.23    2.24</time>
   <time name="total">    2.41    2.41</time>
   <energy>
    <i name="e_fr_energy">    -24.26049141 </i>
    <i name="e_wo_entrp">    -24.26049141 </i>
    <i name="e_0_energy">    -24.26049141 </i>
   </energy>
  </scstep>
  <scstep>
   <time name="dav">    2.26    2.26</time>
   <time name="total">    2.43    2.44</time>
   <energy>
    <i name="e_fr_energy">    -24.26053307 </i>
    <i name="e_wo_entrp">    -24.26053307 </i>
    <i name="e_0_energy">    -24.26053307 </i>
   </energy>
  </scstep>
  <scstep>
   <time name="dav">    2.35    2.35</time>
   <time name="total">    2.38    2.38</time>
   <energy>
    <i name="alphaZ">     46.48765761 </i>
    <i name="ewald">   4982.39063471 </i>
    <i name="hartreedc">  -9774.17614599 </i>
    <i name="XCdc">    142.98675107 </i>
    <i name="pawpsdc">   5761.49924301 </i>
    <i name="pawaedc">  -6581.61772496 </i>
    <i name="eentropy">     -0.00000000 </i>
    <i name="bandstr">   -822.81718082 </i>
    <i name="atom">   6220.98622430 </i>
    <i name="e_fr_energy">    -24.26054108 </i>
    <i name="e_wo_entrp">    -24.26054108 </i>
    <i name="e_0_energy">    -24.26054108 </i>
   </energy>
  </scstep>
  <structure>
   <crystal>
    <varray name="basis" >
     <v>       4.90601600       0.02453100       0.00000000 </v>
     <v>       0.02785600       5.57113200       0.00000000 </v>
     <v>       0.00000000       0.00000000      18.07929100 </v>
    </varray>
    <i name="volume">    494.13196151 </i>
    <varray name="rec_basis" >
     <v>       0.20383647      -0.00101919       0.00000000 </v>
     <v>      -0.00089754       0.17950122       0.00000000 </v>
     <v>       0.00000000       0.00000000       0.05531190 </v>
    </varray>
   </crystal>
   <varray name="positions" >
    <v>       0.50000000       0.50000000       0.50000000 </v>
    <v>       0.00000000       0.00000000       0.50000000 </v>
    <v>       0.25000000       0.25000000       0.41502600 </v>
    <v>       0.75000000       0.75000000       0.41502600 </v>
    <v>       0.75000000       0.25000000       0.58497400 </v>
    <v>       0.25000000       0.75000000       0.58497400 </v>
   </varray>
  </structure>
  <varray name="forces" >
   <v>       0.00000000       0.00000000      -0.09836013 </v>
   <v>       0.00000000       0.00000000      -0.09836013 </v>
   <v>       0.00000000      -0.00000000       0.04893508 </v>
   <v>      -0.00000000       0.00000000       0.04893508 </v>
   <v>      -0.00000000       0.00000000       0.04942505 </v>
   <v>       0.00000000       0.00000000       0.04942505 </v>
  </varray>
  <varray name="stress" >
   <v>       0.19691945      -2.04886449       0.00000000 </v>
   <v>      -2.04886453       0.09068134       0.00000000 </v>
   <v>       0.00000000       0.00000000      -0.04890563 </v>
  </varray>
  <energy>
   <i name="e_fr_energy">    -24.26054108 </i>
   <i name="e_wo_entrp">    -24.26054108 </i>
   <i name="e_0_energy">     -0.00000000 </i>
  </energy>
  <time name="totalsc">   58.23   58.28</time>
 </calculation>
 <calculation>
  <scstep>
   <time name="dav">    3.03    3.03</time>
   <time name="total">    3.21    3.21</time>
   <energy>
    <i name="alphaZ">     46.48765761 </i>
    <i name="ewald">   4982.34082095 </i>
    <i name="hartreedc">  -9774.13123151 </i>
    <i name="XCdc">    142.98630829 </i>
    <i name="pawpsdc">   5761.51517929 </i>
    <i name="pawaedc">  -6581.63365287 </i>
    <i name="eentropy">     -0.00000000 </i>
    <i name="bandstr">   -822.81218146 </i>
    <i name="atom">   6220.98622430 </i>
    <i name="e_fr_energy">    -24.26087541 </i>
    <i name="e_wo_entrp">    -24.26087541 </i>
    <i name="e_0_energy">    -24.26087541 </i>
   </energy>
  </scstep>
  <scstep>
   <time name="dav">    3.19    3.19</time>
   <time name="total">    3.36    3.37</time>
   <energy>
    <i name="e_fr_energy">    -24.26101353 </i>
    <i name="e_wo_entrp">    -24.26101353 </i>
    <i name="e_0_energy">    -24.26101353 </i>
   </energy>
  </scstep>
  <scstep>
   <time name="dav">    3.15    3.16</time>
   <time name="total">    3.33    3.33</time>
   <energy>
    <i name="e_fr_energy">    -24.26101446 </i>
    <i name="e_wo_entrp">    -24.26101446 </i>
    <i name="e_0_energy">    -24.26101446 </i>
   </energy>
  </scstep>
  <scstep>
   <time name="dav">    2.29    2.29</time>
   <time name="total">    2.46    2.46</time>
   <energy>
    <i name="e_fr_energy">    -24.26101324 </i>
    <i name="e_wo_entrp">    -24.26101324 </i>
    <i name="e_0_energy">    -24.26101324 </i>
   </energy>
  </scstep>
  <scstep>
   <time name="dav">    2.30    2.30</time>
   <time name="total">    2.47    2.47</time>
   <energy>
    <i name="e_fr_energy">    -24.26101293 </i>
    <i name="e_wo_entrp">    -24.26101293 </i>
    <i name="e_0_energy">    -24.26101293 </i>
   </energy>
  </scstep>
  <scstep>
   <time name="dav">    2.10    2.10</time>
   <time name="total">    2.13    2.13</time>
   <energy>
    <i name="alphaZ">     46.48765761 </i>
    <i name="ewald">   4982.34082095 </i>
    <i name="hartreedc">  -9774.12989590 </i>
    <i name="XCdc">    142.98631244 </i>
    <i name="pawpsdc">   5761.28394976 </i>
    <i name="pawaedc">  -6581.40101395 </i>
    <i name="eentropy">     -0.00000000 </i>
    <i name="bandstr">   -822.81506866 </i>
    <i name="atom">   6220.98622430 </i>
    <i name="e_fr_energy">    -24.26101346 </i>
    <i name="e_wo_entrp">    -24.26101346 </i>
    <i name="e_0_energy">    -24.26101346 </i>
   </energy>
  </scstep>
  <structure>
   <crystal>
    <varray name="basis" >
     <v>       4.90601600       0.02453100       0.00000000 </v>
     <v>       0.02785600       5.57113200       0.00000000 </v>
     <v>       0.00000000       0.00000000      18.07929100 </v>
    </varray>
    <i name="volume">    494.13196151 </i>
    <varray name="rec_basis" >
     <v>       0.20383647      -0.00101919       0.00000000 </v>
     <v>      -0.00089754       0.17950122       0.00000000 </v>
     <v>       0.00000000       0.00000000       0.05531190 </v>
    </varray>
   </crystal>
   <varray name="positions" >
    <v>       0.50000000       0.50000000       0.49984252 </v>
    <v>       0.00000000       0.00000000       0.49984252 </v>
    <v>       0.25000000       0.25000000       0.41510435 </v>
    <v>       0.75000000       0.75000000       0.41510435 </v>
    <v>       0.75000000       0.25000000       0.58505313 </v>
    <v>       0.25000000       0.75000000       0.58505313 </v>
   </varray>
  </structure>
  <varray name="forces" >
   <v>      -0.00000000       0.00000000      -0.00952664 </v>
   <v>       0.00000000      -0.00000000      -0.00952664 </v>
   <v>       0.00000000      -0.00000000       0.00534443 </v>
   <v>      -0.00000000      -0.00000000       0.00534443 </v>
   <v>      -0.00000000       0.00000000       0.00418221 </v>
   <v>      -0.00000000       0.00000000       0.00418221 </v>
  </varray>
  <varray name="stress" >
   <v>       0.18730114      -1.77382484       0.00000000 </v>
   <v>      -1.77382481       0.07926886       0.00000000 </v>
   <v>       0.00000000       0.00000000      -0.06970147 </v>
  </varray>
  <energy>
   <i name="e_fr_energy">    -24.26101346 </i>
   <i name="e_wo_entrp">    -24.26101346 </i>
   <i name="e_0_energy">     -0.00000000 </i>
  </energy>
  <time name="totalsc">   18.80   18.82</time>
  <eigenvalues>
   <array>
    <dimension dim="1">band</dimension>
    <dimension dim="2">kpoint</dimension>
    <dimension dim="3">spin</dimension>
    <field>eigene</field>
    <field>occ</field>
    <set>
     <set comment="spin 1">
      <set comment="kpoint 1">
       <r>  -27.7949    1.0000 </r>
       <r>  -27.7902    1.0000 </r>
       <r>  -27.7888    1.0000 </r>
       <r>  -27.7826    1.0000 </r>
       <r>  -27.7810    1.0000 </r>
       <r>  -27.7683    1.0000 </r>
       <r>  -27.7635    1.0000 </r>
       <r>  -27.7618    1.0000 </r>
       <r>  -27.7490    1.0000 </r>
       <r>  -27.7434    1.0000 </r>
       <r>  -16.9059    1.0000 </r>
       <r>  -15.3942    1.0000 </r>
       <r>  -14.9711    1.0000 </r>
       <r>  -14.7611    1.0000 </r>
       <r>  -11.7926    1.0000 </r>
       <r>   -9.2163    1.0000 </r>
       <r>   -7.4593    1.0000 </r>
       <r>   -5.8968    1.0000 </r>
       <r>   -5.4982    1.0000 </r>
       <r>   -5.4532    1.0000 </r>
       <r>   -5.2079    1.0000 </r>
       <r>   -5.1342    1.0000 </r>
       <r>   -4.6512    1.0000 </r>
       <r>   -4.1553    1.0000 </r>
       <r>   -2.8694    1.0000 </r>
       <r>   -2.7625    1.0000 </r>
       <r>   -1.8413    0.0000 </r>
       <r>   -1.3768    0.0000 </r>
       <r>   -0.9022    0.0000 </r>
       <r>    0.1380    0.0000 </r>
       <r>    0.6690    0.0000 </r>
       <r>    1.9467    0.0000 </r>
      </set>
      <set comment="kpoint 2">
       <r>  -27.7948    1.0000 </r>
       <r>  -27.7902    1.0000 </r>
       <r>  -27.7887    1.0000 </r>
       <r>  -27.7827    1.0000 </r>
       <r>  -27.7810    1.0000 </r>
       <r>  -27.7683    1.0000 </r>
       <r>  -27.7635    1.0000 </r>
       <r>  -27.7620    1.0000 </r>
       <r>  -27.7489    1.0000 </r>
       <r>  -27.7435    1.0000 </r>
       <r>  -16.8893    1.0000 </r>
       <r>  -15.3879    1.0000 </r>
       <r>  -14.9737    1.0000 </r>
       <r>  -14.8001    1.0000 </r>
       <r>  -11.7498    1.0000 </r>
       <r>   -9.2317    1.0000 </r>
       <r>   -7.4578    1.0000 </r>
       <r>   -5.8908    1.0000 </r>
       <r>   -5.5897    1.0000 </r>
       <r>   -5.5297    1.0000 </r>
       <r>   -5.2704    1.0000 </r>
       <r>   -5.0342    1.0000 </r>
       <r>   -4.6476    1.0000 </r>
       <r>   -4.1407    1.0000 </r>
       <r>   -2.9212    1.0000 </r>
       <r>   -2.8007    1.0000 </r>
       <r>   -1.7420    0.0000 </r>
       <r>   -1.3725    0.0000 </r>
       <r>   -0.7914    0.0000 </r>
       <r>    0.1865    0.0000 </r>
       <r>    0.7163    0.0000 </r>
       <r>    1.9762    0.0000 </r>
      </set>
      <set comment="kpoint 3">
       <r>  -27.7944    1.0000 </r>
       <r>  -27.7900    1.0000 </r>
       <r>  -27.7883    1.0000 </r>
       <r>  -27.7830    1.0000 </r>
       <r>  -27.7809    1.0000 </r>
       <r>  -27.7681    1.0000 </r>
       <r>  -27.7637    1.0000 </r>
       <r>  -27.7628    1.0000 </r>
       <r>  -27.7487    1.0000 </r>
       <r>  -27.7436    1.0000 </r>
       <r>  -16.8397    1.0000 </r>
       <r>  -15.3695    1.0000 </r>
       <r>  -14.9825    1.0000 </r>
       <r>  -14.9093    1.0000 </r>
       <r>  -11.6278    1.0000 </r>
       <r>   -9.2796    1.0000 </r>
       <r>   -7.4521    1.0000 </r>
       <r>   -5.8712    1.0000 </r>
       <r>   -5.7433    1.0000 </r>
       <r>   -5.7279    1.0000 </r>
       <r>   -5.4304    1.0000 </r>
       <r>   -4.8578    1.0000 </r>
       <r>   -4.6540    1.0000 </r>
       <r>   -4.0984    1.0000 </r>
       <r>   -3.0648    1.0000 </r>
       <r>   -2.8939    1.0000 </r>
       <r>   -1.4854    0.0000 </r>
       <r>   -1.3481    0.0000 </r>
       <r>   -0.4800    0.0000 </r>
       <r>    0.3219    0.0000 </r>
       <r>    0.8474    0.0000 </r>
       <r>    2.0118    0.0000 </r>
      </set>
      <set comment="kpoint 4">
       <r>  -27.7938    1.0000 </r>
       <r>  -27.7897    1.0000 </r>
       <r>  -27.7878    1.0000 </r>
       <r>  -27.7836    1.0000 </r>
       <r>  -27.7806    1.0000 </r>
       <r>  -27.7678    1.0000 </r>
       <r>  -27.7642    1.0000 </r>
       <r>  -27.7637    1.0000 </r>
       <r>  -27.7484    1.0000 </r>
       <r>  -27.7439    1.0000 </r>
       <r>  -16.7578    1.0000 </r>
       <r>  -15.3402    1.0000 </r>
       <r>  -15.0774    1.0000 </r>
       <r>  -14.9925    1.0000 </r>
       <r>  -11.4426    1.0000 </r>
       <r>   -9.3647    1.0000 </r>
       <r>   -7.4387    1.0000 </r>
       <r>   -5.9907    1.0000 </r>
       <r>   -5.8978    1.0000 </r>
       <r>   -5.8174    1.0000 </r>
       <r>   -5.6325    1.0000 </r>
       <r>   -4.6926    1.0000 </r>
       <r>   -4.6888    1.0000 </r>
       <r>   -4.0327    1.0000 </r>
       <r>   -3.2671    1.0000 </r>
       <r>   -3.0159    1.0000 </r>
       <r>   -1.2805    0.0000 </r>
       <r>   -1.1481    0.0000 </r>
       <r>   -0.0144    0.0000 </r>
       <r>    0.5203    0.0000 </r>
       <r>    1.0286    0.0000 </r>
       <r>    1.8477    0.0000 </r>
      </set>
      <set comment="kpoint 5">
       <r>  -27.7930    1.0000 </r>
       <r>  -27.7893    1.0000 </r>
       <r>  -27.7875    1.0000 </r>
       <r>  -27.7843    1.0000 </r>
       <r>  -27.7799    1.0000 </r>
       <r>  -27.7673    1.0000 </r>
       <r>  -27.7659    1.0000 </r>
       <r>  -27.7640    1.0000 </r>
       <r>  -27.7481    1.0000 </r>
       <r>  -27.7443    1.0000 </r>
       <r>  -16.6451    1.0000 </r>
       <r>  -15.3020    1.0000 </r>
       <r>  -15.2762    1.0000 </r>
       <r>  -15.0136    1.0000 </r>
       <r>  -11.2122    1.0000 </r>
       <r>   -9.4922    1.0000 </r>
       <r>   -7.4113    1.0000 </r>
       <r>   -6.2732    1.0000 </r>
       <r>   -6.0106    1.0000 </r>
       <r>   -5.8280    1.0000 </r>
       <r>   -5.7499    1.0000 </r>
       <r>   -4.7716    1.0000 </r>
       <r>   -4.5485    1.0000 </r>
       <r>   -3.9488    1.0000 </r>
       <r>   -3.4930    1.0000 </r>
       <r>   -3.1488    1.0000 </r>
       <r>   -1.1532    0.0000 </r>
       <r>   -0.8037    0.0000 </r>
       <r>    0.5585    0.0000 </r>
       <r>    0.7519    0.0000 </r>
       <r>    1.2063    0.0000 </r>
       <r>    1.6838    0.0000 </r>
      </set>
      <set comment="kpoint 6">
       <r>  -27.7920    1.0000 </r>
       <r>  -27.7888    1.0000 </r>
       <r>  -27.7875    1.0000 </r>
       <r>  -27.7852    1.0000 </r>
       <r>  -27.7787    1.0000 </r>
       <r>  -27.7679    1.0000 </r>
       <r>  -27.7669    1.0000 </r>
       <r>  -27.7644    1.0000 </r>
       <r>  -27.7476    1.0000 </r>
       <r>  -27.7447    1.0000 </r>
       <r>  -16.5037    1.0000 </r>
       <r>  -15.4945    1.0000 </r>
       <r>  -15.2575    1.0000 </r>
       <r>  -15.0409    1.0000 </r>
       <r>  -10.9522    1.0000 </r>
       <r>   -9.6646    1.0000 </r>
       <r>   -7.3613    1.0000 </r>
       <r>   -6.5460    1.0000 </r>
       <r>   -6.0961    1.0000 </r>
       <r>   -5.9867    1.0000 </r>
       <r>   -5.6479    1.0000 </r>
       <r>   -4.8890    1.0000 </r>
       <r>   -4.4351    1.0000 </r>
       <r>   -3.8519    1.0000 </r>
       <r>   -3.7156    1.0000 </r>
       <r>   -3.2802    1.0000 </r>
       <r>   -0.9694    0.0000 </r>
       <r>   -0.5244    0.0000 </r>
       <r>    0.9825    0.0000 </r>
       <r>    1.1949    0.0000 </r>
       <r>    1.3273    0.0000 </r>
       <r>    1.5624    0.0000 </r>
      </set>
      <set comment="kpoint 7">
       <r>  -27.7909    1.0000 </r>
       <r>  -27.7883    1.0000 </r>
       <r>  -27.7879    1.0000 </r>
       <r>  -27.7861    1.0000 </r>
       <r>  -27.7769    1.0000 </r>
       <r>  -27.7701    1.0000 </r>
       <r>  -27.7663    1.0000 </r>
       <r>  -27.7648    1.0000 </r>
       <r>  -27.7470    1.0000 </r>
       <r>  -27.7453    1.0000 </r>
       <r>  -16.3361    1.0000 </r>
       <r>  -15.7185    1.0000 </r>
       <r>  -15.2096    1.0000 </r>
       <r>  -15.0752    1.0000 </r>
       <r>  -10.6764    1.0000 </r>
       <r>   -9.8791    1.0000 </r>
       <r>   -7.2799    1.0000 </r>
       <r>   -6.7907    1.0000 </r>
       <r>   -6.1503    1.0000 </r>
       <r>   -6.0959    1.0000 </r>
       <r>   -5.5168    1.0000 </r>
       <r>   -5.0359    1.0000 </r>
       <r>   -4.3330    1.0000 </r>
       <r>   -3.9166    1.0000 </r>
       <r>   -3.7467    1.0000 </r>
       <r>   -3.4047    1.0000 </r>
       <r>   -0.7523    0.0000 </r>
       <r>   -0.3781    0.0000 </r>
       <r>    1.1756    0.0000 </r>
       <r>    1.3781    0.0000 </r>
       <r>    1.4465    0.0000 </r>
       <r>    1.4654    0.0000 </r>
      </set>
      <set comment="kpoint 8">
       <r>  -27.7897    1.0000 </r>
       <r>  -27.7887    1.0000 </r>
       <r>  -27.7877    1.0000 </r>
       <r>  -27.7870    1.0000 </r>
       <r>  -27.7748    1.0000 </r>
       <r>  -27.7725    1.0000 </r>
       <r>  -27.7658    1.0000 </r>
       <r>  -27.7653    1.0000 </r>
       <r>  -27.7464    1.0000 </r>
       <r>  -27.7458    1.0000 </r>
       <r>  -16.1461    1.0000 </r>
       <r>  -15.9383    1.0000 </r>
       <r>  -15.1615    1.0000 </r>
       <r>  -15.1159    1.0000 </r>
       <r>  -10.3972    1.0000 </r>
       <r>  -10.1272    1.0000 </r>
       <r>   -7.1599    1.0000 </r>
       <r>   -6.9969    1.0000 </r>
       <r>   -6.1715    1.0000 </r>
       <r>   -6.1556    1.0000 </r>
       <r>   -5.3638    1.0000 </r>
       <r>   -5.1991    1.0000 </r>
       <r>   -4.2220    1.0000 </r>
       <r>   -4.0858    1.0000 </r>
       <r>   -3.6365    1.0000 </r>
       <r>   -3.5227    1.0000 </r>
       <r>   -0.5423    0.0000 </r>
       <r>   -0.3957    0.0000 </r>
       <r>    1.3063    0.0000 </r>
       <r>    1.3852    0.0000 </r>
       <r>    1.3905    0.0000 </r>
       <r>    1.4056    0.0000 </r>
      </set>
      <set comment="kpoint 9">
       <r>  -27.7948    1.0000 </r>
       <r>  -27.7901    1.0000 </r>
       <r>  -27.7887    1.0000 </r>
       <r>  -27.7825    1.0000 </r>
       <r>  -27.7811    1.0000 </r>
       <r>  -27.7683    1.0000 </r>
       <r>  -27.7636    1.0000 </r>
       <r>  -27.7621    1.0000 </r>
       <r>  -27.7489    1.0000 </r>
       <r>  -27.7435    1.0000 </r>
       <r>  -16.8872    1.0000 </r>
       <r>  -15.3854    1.0000 </r>
       <r>  -15.0215    1.0000 </r>
       <r>  -14.7706    1.0000 </r>
       <r>  -11.7296    1.0000 </r>
       <r>   -9.2343    1.0000 </r>
       <r>   -7.4457    1.0000 </r>
       <r>   -5.9205    1.0000 </r>
       <r>   -5.5127    1.0000 </r>
       <r>   -5.4899    1.0000 </r>
       <r>   -5.2928    1.0000 </r>
       <r>   -5.0991    1.0000 </r>
       <r>   -4.6470    1.0000 </r>
       <r>   -4.1251    1.0000 </r>
       <r>   -2.9123    1.0000 </r>
       <r>   -2.8199    1.0000 </r>
       <r>   -1.7244    0.0000 </r>
       <r>   -1.3535    0.0000 </r>
       <r>   -0.7719    0.0000 </r>
       <r>    0.1563    0.0000 </r>
       <r>    0.7030    0.0000 </r>
       <r>    1.9741    0.0000 </r>
      </set>
      <set comment="kpoint 10">
       <r>  -27.7948    1.0000 </r>
       <r>  -27.7899    1.0000 </r>
       <r>  -27.7885    1.0000 </r>
       <r>  -27.7826    1.0000 </r>
       <r>  -27.7812    1.0000 </r>
       <r>  -27.7682    1.0000 </r>
       <r>  -27.7637    1.0000 </r>
       <r>  -27.7622    1.0000 </r>
       <r>  -27.7488    1.0000 </r>
       <r>  -27.7436    1.0000 </r>
       <r>  -16.8716    1.0000 </r>
       <r>  -15.3797    1.0000 </r>
       <r>  -15.0231    1.0000 </r>
       <r>  -14.8048    1.0000 </r>
       <r>  -11.6928    1.0000 </r>
       <r>   -9.2532    1.0000 </r>
       <r>   -7.4398    1.0000 </r>
       <r>   -5.9360    1.0000 </r>
       <r>   -5.6715    1.0000 </r>
       <r>   -5.5547    1.0000 </r>
       <r>   -5.2341    1.0000 </r>
       <r>   -5.0079    1.0000 </r>
       <r>   -4.6539    1.0000 </r>
       <r>   -4.1115    1.0000 </r>
       <r>   -3.0460    1.0000 </r>
       <r>   -2.7535    1.0000 </r>
       <r>   -1.6562    0.0000 </r>
       <r>   -1.3478    0.0000 </r>
       <r>   -0.6709    0.0000 </r>
       <r>    0.2021    0.0000 </r>
       <r>    0.7461    0.0000 </r>
       <r>    1.9491    0.0000 </r>
      </set>
      <set comment="kpoint 11">
       <r>  -27.7946    1.0000 </r>
       <r>  -27.7896    1.0000 </r>
       <r>  -27.7882    1.0000 </r>
       <r>  -27.7829    1.0000 </r>
       <r>  -27.7811    1.0000 </r>
       <r>  -27.7680    1.0000 </r>
       <r>  -27.7641    1.0000 </r>
       <r>  -27.7627    1.0000 </r>
       <r>  -27.7487    1.0000 </r>
       <r>  -27.7437    1.0000 </r>
       <r>  -16.8234    1.0000 </r>
       <r>  -15.3623    1.0000 </r>
       <r>  -15.0423    1.0000 </r>
       <r>  -14.8935    1.0000 </r>
       <r>  -11.5834    1.0000 </r>
       <r>   -9.3074    1.0000 </r>
       <r>   -7.4248    1.0000 </r>
       <r>   -5.9746    1.0000 </r>
       <r>   -5.9150    1.0000 </r>
       <r>   -5.6503    1.0000 </r>
       <r>   -5.2841    1.0000 </r>
       <r>   -4.8379    1.0000 </r>
       <r>   -4.6733    1.0000 </r>
       <r>   -4.0704    1.0000 </r>
       <r>   -3.2243    1.0000 </r>
       <r>   -2.7734    1.0000 </r>
       <r>   -1.4914    0.0000 </r>
       <r>   -1.3216    0.0000 </r>
       <r>   -0.3426    0.0000 </r>
       <r>    0.3318    0.0000 </r>
       <r>    0.8722    0.0000 </r>
       <r>    1.8211    0.0000 </r>
      </set>
      <set comment="kpoint 12">
       <r>  -27.7942    1.0000 </r>
       <r>  -27.7892    1.0000 </r>
       <r>  -27.7877    1.0000 </r>
       <r>  -27.7835    1.0000 </r>
       <r>  -27.7808    1.0000 </r>
       <r>  -27.7677    1.0000 </r>
       <r>  -27.7650    1.0000 </r>
       <r>  -27.7632    1.0000 </r>
       <r>  -27.7484    1.0000 </r>
       <r>  -27.7440    1.0000 </r>
       <r>  -16.7434    1.0000 </r>
       <r>  -15.3344    1.0000 </r>
       <r>  -15.1233    1.0000 </r>
       <r>  -14.9786    1.0000 </r>
       <r>  -11.4145    1.0000 </r>
       <r>   -9.4006    1.0000 </r>
       <r>   -7.3992    1.0000 </r>
       <r>   -6.1709    1.0000 </r>
       <r>   -6.0436    1.0000 </r>
       <r>   -5.6862    1.0000 </r>
       <r>   -5.4374    1.0000 </r>
       <r>   -4.7230    1.0000 </r>
       <r>   -4.6750    1.0000 </r>
       <r>   -4.0034    1.0000 </r>
       <r>   -3.4211    1.0000 </r>
       <r>   -2.8631    1.0000 </r>
       <r>   -1.2541    0.0000 </r>
       <r>   -1.2275    0.0000 </r>
       <r>    0.1265    0.0000 </r>
       <r>    0.5203    0.0000 </r>
       <r>    1.0511    0.0000 </r>
       <r>    1.6608    0.0000 </r>
      </set>
      <set comment="kpoint 13">
       <r>  -27.7936    1.0000 </r>
       <r>  -27.7886    1.0000 </r>
       <r>  -27.7874    1.0000 </r>
       <r>  -27.7843    1.0000 </r>
       <r>  -27.7801    1.0000 </r>
       <r>  -27.7673    1.0000 </r>
       <r>  -27.7664    1.0000 </r>
       <r>  -27.7637    1.0000 </r>
       <r>  -27.7480    1.0000 </r>
       <r>  -27.7443    1.0000 </r>
       <r>  -16.6330    1.0000 </r>
       <r>  -15.2979    1.0000 </r>
       <r>  -15.2930    1.0000 </r>
       <r>  -15.0167    1.0000 </r>
       <r>  -11.2013    1.0000 </r>
       <r>   -9.5364    1.0000 </r>
       <r>   -7.3602    1.0000 </r>
       <r>   -6.4088    1.0000 </r>
       <r>   -6.1173    1.0000 </r>
       <r>   -5.6629    1.0000 </r>
       <r>   -5.6381    1.0000 </r>
       <r>   -4.8145    1.0000 </r>
       <r>   -4.5414    1.0000 </r>
       <r>   -3.9144    1.0000 </r>
       <r>   -3.6152    1.0000 </r>
       <r>   -2.9945    1.0000 </r>
       <r>   -1.1314    0.0000 </r>
       <r>   -0.9168    0.0000 </r>
       <r>    0.6735    0.0000 </r>
       <r>    0.7366    0.0000 </r>
       <r>    1.2333    0.0000 </r>
       <r>    1.5204    0.0000 </r>
      </set>
      <set comment="kpoint 14">
       <r>  -27.7928    1.0000 </r>
       <r>  -27.7880    1.0000 </r>
       <r>  -27.7874    1.0000 </r>
       <r>  -27.7852    1.0000 </r>
       <r>  -27.7789    1.0000 </r>
       <r>  -27.7683    1.0000 </r>
       <r>  -27.7668    1.0000 </r>
       <r>  -27.7641    1.0000 </r>
       <r>  -27.7475    1.0000 </r>
       <r>  -27.7447    1.0000 </r>
       <r>  -16.4945    1.0000 </r>
       <r>  -15.4984    1.0000 </r>
       <r>  -15.2552    1.0000 </r>
       <r>  -15.0459    1.0000 </r>
       <r>  -10.9580    1.0000 </r>
       <r>   -9.7145    1.0000 </r>
       <r>   -7.3031    1.0000 </r>
       <r>   -6.6179    1.0000 </r>
       <r>   -6.1693    1.0000 </r>
       <r>   -5.8368    1.0000 </r>
       <r>   -5.5982    1.0000 </r>
       <r>   -4.9423    1.0000 </r>
       <r>   -4.4337    1.0000 </r>
       <r>   -3.8100    1.0000 </r>
       <r>   -3.7945    1.0000 </r>
       <r>   -3.1428    1.0000 </r>
       <r>   -0.9586    0.0000 </r>
       <r>   -0.6378    0.0000 </r>
       <r>    0.9469    0.0000 </r>
       <r>    1.2383    0.0000 </r>
       <r>    1.3660    0.0000 </r>
       <r>    1.4473    0.0000 </r>
      </set>
      <set comment="kpoint 15">
       <r>  -27.7919    1.0000 </r>
       <r>  -27.7876    1.0000 </r>
       <r>  -27.7872    1.0000 </r>
       <r>  -27.7863    1.0000 </r>
       <r>  -27.7772    1.0000 </r>
       <r>  -27.7704    1.0000 </r>
       <r>  -27.7663    1.0000 </r>
       <r>  -27.7646    1.0000 </r>
       <r>  -27.7470    1.0000 </r>
       <r>  -27.7452    1.0000 </r>
       <r>  -16.3307    1.0000 </r>
       <r>  -15.7144    1.0000 </r>
       <r>  -15.2093    1.0000 </r>
       <r>  -15.0788    1.0000 </r>
       <r>  -10.6967    1.0000 </r>
       <r>   -9.9298    1.0000 </r>
       <r>   -7.2228    1.0000 </r>
       <r>   -6.8001    1.0000 </r>
       <r>   -6.1892    1.0000 </r>
       <r>   -6.0001    1.0000 </r>
       <r>   -5.5009    1.0000 </r>
       <r>   -5.0913    1.0000 </r>
       <r>   -4.3359    1.0000 </r>
       <r>   -3.9551    1.0000 </r>
       <r>   -3.6960    1.0000 </r>
       <r>   -3.2920    1.0000 </r>
       <r>   -0.7614    0.0000 </r>
       <r>   -0.4687    0.0000 </r>
       <r>    1.1204    0.0000 </r>
       <r>    1.3759    0.0000 </r>
       <r>    1.4276    0.0000 </r>
       <r>    1.5427    0.0000 </r>
      </set>
      <set comment="kpoint 16">
       <r>  -27.7910    1.0000 </r>
       <r>  -27.7882    1.0000 </r>
       <r>  -27.7873    1.0000 </r>
       <r>  -27.7864    1.0000 </r>
       <r>  -27.7751    1.0000 </r>
       <r>  -27.7726    1.0000 </r>
       <r>  -27.7657    1.0000 </r>
       <r>  -27.7651    1.0000 </r>
       <r>  -27.7464    1.0000 </r>
       <r>  -27.7458    1.0000 </r>
       <r>  -16.1454    1.0000 </r>
       <r>  -15.9286    1.0000 </r>
       <r>  -15.1631    1.0000 </r>
       <r>  -15.1170    1.0000 </r>
       <r>  -10.4288    1.0000 </r>
       <r>  -10.1725    1.0000 </r>
       <r>   -7.1153    1.0000 </r>
       <r>   -6.9597    1.0000 </r>
       <r>   -6.1733    1.0000 </r>
       <r>   -6.1121    1.0000 </r>
       <r>   -5.3763    1.0000 </r>
       <r>   -5.2445    1.0000 </r>
       <r>   -4.2309    1.0000 </r>
       <r>   -4.0957    1.0000 </r>
       <r>   -3.5758    1.0000 </r>
       <r>   -3.4347    1.0000 </r>
       <r>   -0.5832    0.0000 </r>
       <r>   -0.4500    0.0000 </r>
       <r>    1.2442    0.0000 </r>
       <r>    1.3633    0.0000 </r>
       <r>    1.4353    0.0000 </r>
       <r>    1.4479    0.0000 </r>
      </set>
      <set comment="kpoint 17">
       <r>  -27.7900    1.0000 </r>
       <r>  -27.7892    1.0000 </r>
       <r>  -27.7880    1.0000 </r>
       <r>  -27.7857    1.0000 </r>
       <r>  -27.7749    1.0000 </r>
       <r>  -27.7728    1.0000 </r>
       <r>  -27.7656    1.0000 </r>
       <r>  -27.7652    1.0000 </r>
       <r>  -27.7464    1.0000 </r>
       <r>  -27.7459    1.0000 </r>
       <r>  -16.1326    1.0000 </r>
       <r>  -15.9436    1.0000 </r>
       <r>  -15.1600    1.0000 </r>
       <r>  -15.1190    1.0000 </r>
       <r>  -10.4313    1.0000 </r>
       <r>  -10.1655    1.0000 </r>
       <r>   -7.0972    1.0000 </r>
       <r>   -6.9788    1.0000 </r>
       <r>   -6.1714    1.0000 </r>
       <r>   -6.1174    1.0000 </r>
       <r>   -5.3884    1.0000 </r>
       <r>   -5.2312    1.0000 </r>
       <r>   -4.2159    1.0000 </r>
       <r>   -4.1066    1.0000 </r>
       <r>   -3.5693    1.0000 </r>
       <r>   -3.4506    1.0000 </r>
       <r>   -0.5605    0.0000 </r>
       <r>   -0.4817    0.0000 </r>
       <r>    1.2584    0.0000 </r>
       <r>    1.3174    0.0000 </r>
       <r>    1.4409    0.0000 </r>
       <r>    1.4587    0.0000 </r>
      </set>
      <set comment="kpoint 18">
       <r>  -27.7904    1.0000 </r>
       <r>  -27.7892    1.0000 </r>
       <r>  -27.7886    1.0000 </r>
       <r>  -27.7849    1.0000 </r>
       <r>  -27.7769    1.0000 </r>
       <r>  -27.7705    1.0000 </r>
       <r>  -27.7662    1.0000 </r>
       <r>  -27.7647    1.0000 </r>
       <r>  -27.7469    1.0000 </r>
       <r>  -27.7453    1.0000 </r>
       <r>  -16.3200    1.0000 </r>
       <r>  -15.7319    1.0000 </r>
       <r>  -15.2058    1.0000 </r>
       <r>  -15.0788    1.0000 </r>
       <r>  -10.6948    1.0000 </r>
       <r>   -9.9192    1.0000 </r>
       <r>   -7.2100    1.0000 </r>
       <r>   -6.8130    1.0000 </r>
       <r>   -6.1836    1.0000 </r>
       <r>   -6.0164    1.0000 </r>
       <r>   -5.5146    1.0000 </r>
       <r>   -5.0760    1.0000 </r>
       <r>   -4.3191    1.0000 </r>
       <r>   -3.9579    1.0000 </r>
       <r>   -3.6958    1.0000 </r>
       <r>   -3.3206    1.0000 </r>
       <r>   -0.7441    0.0000 </r>
       <r>   -0.5160    0.0000 </r>
       <r>    1.1220    0.0000 </r>
       <r>    1.3275    0.0000 </r>
       <r>    1.4528    0.0000 </r>
       <r>    1.5229    0.0000 </r>
      </set>
      <set comment="kpoint 19">
       <r>  -27.7915    1.0000 </r>
       <r>  -27.7891    1.0000 </r>
       <r>  -27.7885    1.0000 </r>
       <r>  -27.7842    1.0000 </r>
       <r>  -27.7786    1.0000 </r>
       <r>  -27.7683    1.0000 </r>
       <r>  -27.7667    1.0000 </r>
       <r>  -27.7643    1.0000 </r>
       <r>  -27.7475    1.0000 </r>
       <r>  -27.7448    1.0000 </r>
       <r>  -16.4857    1.0000 </r>
       <r>  -15.5190    1.0000 </r>
       <r>  -15.2517    1.0000 </r>
       <r>  -15.0426    1.0000 </r>
       <r>  -10.9525    1.0000 </r>
       <r>   -9.7020    1.0000 </r>
       <r>   -7.2970    1.0000 </r>
       <r>   -6.6175    1.0000 </r>
       <r>   -6.1546    1.0000 </r>
       <r>   -5.8703    1.0000 </r>
       <r>   -5.6175    1.0000 </r>
       <r>   -4.9263    1.0000 </r>
       <r>   -4.4165    1.0000 </r>
       <r>   -3.8134    1.0000 </r>
       <r>   -3.7841    1.0000 </r>
       <r>   -3.1869    1.0000 </r>
       <r>   -0.9459    0.0000 </r>
       <r>   -0.7046    0.0000 </r>
       <r>    0.9453    0.0000 </r>
       <r>    1.2464    0.0000 </r>
       <r>    1.3893    0.0000 </r>
       <r>    1.4885    0.0000 </r>
      </set>
      <set comment="kpoint 20">
       <r>  -27.7925    1.0000 </r>
       <r>  -27.7895    1.0000 </r>
       <r>  -27.7882    1.0000 </r>
       <r>  -27.7837    1.0000 </r>
       <r>  -27.7799    1.0000 </r>
       <r>  -27.7672    1.0000 </r>
       <r>  -27.7663    1.0000 </r>
       <r>  -27.7640    1.0000 </r>
       <r>  -27.7480    1.0000 </r>
       <r>  -27.7444    1.0000 </r>
       <r>  -16.6261    1.0000 </r>
       <r>  -15.3182    1.0000 </r>
       <r>  -15.2947    1.0000 </r>
       <r>  -15.0077    1.0000 </r>
       <r>  -11.1935    1.0000 </r>
       <r>   -9.5238    1.0000 </r>
       <r>   -7.3599    1.0000 </r>
       <r>   -6.3904    1.0000 </r>
       <r>   -6.0901    1.0000 </r>
       <r>   -5.6917    1.0000 </r>
       <r>   -5.6911    1.0000 </r>
       <r>   -4.8001    1.0000 </r>
       <r>   -4.5256    1.0000 </r>
       <r>   -3.9188    1.0000 </r>
       <r>   -3.5868    1.0000 </r>
       <r>   -3.0553    1.0000 </r>
       <r>   -1.1233    0.0000 </r>
       <r>   -0.9977    0.0000 </r>
       <r>    0.7358    0.0000 </r>
       <r>    0.7620    0.0000 </r>
       <r>    1.2539    0.0000 </r>
       <r>    1.5363    0.0000 </r>
      </set>
      <set comment="kpoint 21">
       <r>  -27.7934    1.0000 </r>
       <r>  -27.7898    1.0000 </r>
       <r>  -27.7882    1.0000 </r>
       <r>  -27.7832    1.0000 </r>
       <r>  -27.7806    1.0000 </r>
       <r>  -27.7676    1.0000 </r>
       <r>  -27.7647    1.0000 </r>
       <r>  -27.7637    1.0000 </r>
       <r>  -27.7484    1.0000 </r>
       <r>  -27.7440    1.0000 </r>
       <r>  -16.7382    1.0000 </r>
       <r>  -15.3318    1.0000 </r>
       <r>  -15.1541    1.0000 </r>
       <r>  -14.9617    1.0000 </r>
       <r>  -11.4061    1.0000 </r>
       <r>   -9.3899    1.0000 </r>
       <r>   -7.4023    1.0000 </r>
       <r>   -6.1335    1.0000 </r>
       <r>   -6.0039    1.0000 </r>
       <r>   -5.7258    1.0000 </r>
       <r>   -5.5080    1.0000 </r>
       <r>   -4.7119    1.0000 </r>
       <r>   -4.6624    1.0000 </r>
       <r>   -4.0065    1.0000 </r>
       <r>   -3.3726    1.0000 </r>
       <r>   -2.9394    1.0000 </r>
       <r>   -1.3125    0.0000 </r>
       <r>   -1.2502    0.0000 </r>
       <r>    0.2300    0.0000 </r>
       <r>    0.5212    0.0000 </r>
       <r>    1.0680    0.0000 </r>
       <r>    1.6810    0.0000 </r>
      </set>
      <set comment="kpoint 22">
       <r>  -27.7941    1.0000 </r>
       <r>  -27.7900    1.0000 </r>
       <r>  -27.7884    1.0000 </r>
       <r>  -27.7829    1.0000 </r>
       <r>  -27.7809    1.0000 </r>
       <r>  -27.7680    1.0000 </r>
       <r>  -27.7637    1.0000 </r>
       <r>  -27.7632    1.0000 </r>
       <r>  -27.7486    1.0000 </r>
       <r>  -27.7437    1.0000 </r>
       <r>  -16.8199    1.0000 </r>
       <r>  -15.3606    1.0000 </r>
       <r>  -15.0640    1.0000 </r>
       <r>  -14.8822    1.0000 </r>
       <r>  -11.5764    1.0000 </r>
       <r>   -9.2997    1.0000 </r>
       <r>   -7.4286    1.0000 </r>
       <r>   -5.9366    1.0000 </r>
       <r>   -5.8608    1.0000 </r>
       <r>   -5.6884    1.0000 </r>
       <r>   -5.3664    1.0000 </r>
       <r>   -4.8290    1.0000 </r>
       <r>   -4.6652    1.0000 </r>
       <r>   -4.0716    1.0000 </r>
       <r>   -3.1569    1.0000 </r>
       <r>   -2.8610    1.0000 </r>
       <r>   -1.5684    0.0000 </r>
       <r>   -1.3207    0.0000 </r>
       <r>   -0.2471    0.0000 </r>
       <r>    0.3337    0.0000 </r>
       <r>    0.8842    0.0000 </r>
       <r>    1.8408    0.0000 </r>
      </set>
      <set comment="kpoint 23">
       <r>  -27.7946    1.0000 </r>
       <r>  -27.7901    1.0000 </r>
       <r>  -27.7886    1.0000 </r>
       <r>  -27.7827    1.0000 </r>
       <r>  -27.7810    1.0000 </r>
       <r>  -27.7682    1.0000 </r>
       <r>  -27.7636    1.0000 </r>
       <r>  -27.7624    1.0000 </r>
       <r>  -27.7488    1.0000 </r>
       <r>  -27.7436    1.0000 </r>
       <r>  -16.8699    1.0000 </r>
       <r>  -15.3788    1.0000 </r>
       <r>  -15.0319    1.0000 </r>
       <r>  -14.8016    1.0000 </r>
       <r>  -11.6888    1.0000 </r>
       <r>   -9.2493    1.0000 </r>
       <r>   -7.4423    1.0000 </r>
       <r>   -5.9174    1.0000 </r>
       <r>   -5.6103    1.0000 </r>
       <r>   -5.5745    1.0000 </r>
       <r>   -5.3126    1.0000 </r>
       <r>   -5.0022    1.0000 </r>
       <r>   -4.6488    1.0000 </r>
       <r>   -4.1115    1.0000 </r>
       <r>   -2.9636    1.0000 </r>
       <r>   -2.8465    1.0000 </r>
       <r>   -1.7069    0.0000 </r>
       <r>   -1.3480    0.0000 </r>
       <r>   -0.6086    0.0000 </r>
       <r>    0.2037    0.0000 </r>
       <r>    0.7523    0.0000 </r>
       <r>    1.9536    0.0000 </r>
      </set>
      <set comment="kpoint 24">
       <r>  -27.7944    1.0000 </r>
       <r>  -27.7897    1.0000 </r>
       <r>  -27.7885    1.0000 </r>
       <r>  -27.7824    1.0000 </r>
       <r>  -27.7813    1.0000 </r>
       <r>  -27.7680    1.0000 </r>
       <r>  -27.7638    1.0000 </r>
       <r>  -27.7631    1.0000 </r>
       <r>  -27.7487    1.0000 </r>
       <r>  -27.7438    1.0000 </r>
       <r>  -16.8313    1.0000 </r>
       <r>  -15.3592    1.0000 </r>
       <r>  -15.1598    1.0000 </r>
       <r>  -14.7984    1.0000 </r>
       <r>  -11.5539    1.0000 </r>
       <r>   -9.2912    1.0000 </r>
       <r>   -7.4036    1.0000 </r>
       <r>   -5.9813    1.0000 </r>
       <r>   -5.6653    1.0000 </r>
       <r>   -5.5068    1.0000 </r>
       <r>   -5.4630    1.0000 </r>
       <r>   -5.0038    1.0000 </r>
       <r>   -4.6553    1.0000 </r>
       <r>   -4.0404    1.0000 </r>
       <r>   -3.0518    1.0000 </r>
       <r>   -2.9288    1.0000 </r>
       <r>   -1.4317    0.0000 </r>
       <r>   -1.2806    0.0000 </r>
       <r>   -0.4118    0.0000 </r>
       <r>    0.2094    0.0000 </r>
       <r>    0.7966    0.0000 </r>
       <r>    1.8956    0.0000 </r>
      </set>
      <set comment="kpoint 25">
       <r>  -27.7946    1.0000 </r>
       <r>  -27.7894    1.0000 </r>
       <r>  -27.7883    1.0000 </r>
       <r>  -27.7823    1.0000 </r>
       <r>  -27.7815    1.0000 </r>
       <r>  -27.7679    1.0000 </r>
       <r>  -27.7642    1.0000 </r>
       <r>  -27.7629    1.0000 </r>
       <r>  -27.7486    1.0000 </r>
       <r>  -27.7438    1.0000 </r>
       <r>  -16.8171    1.0000 </r>
       <r>  -15.3546    1.0000 </r>
       <r>  -15.1617    1.0000 </r>
       <r>  -14.8227    1.0000 </r>
       <r>  -11.5293    1.0000 </r>
       <r>   -9.3161    1.0000 </r>
       <r>   -7.3887    1.0000 </r>
       <r>   -6.0155    1.0000 </r>
       <r>   -5.8967    1.0000 </r>
       <r>   -5.5006    1.0000 </r>
       <r>   -5.3139    1.0000 </r>
       <r>   -4.9275    1.0000 </r>
       <r>   -4.6741    1.0000 </r>
       <r>   -4.0277    1.0000 </r>
       <r>   -3.2219    1.0000 </r>
       <r>   -2.7940    1.0000 </r>
       <r>   -1.4439    0.0000 </r>
       <r>   -1.2727    0.0000 </r>
       <r>   -0.2971    0.0000 </r>
       <r>    0.2493    0.0000 </r>
       <r>    0.8343    0.0000 </r>
       <r>    1.7663    0.0000 </r>
      </set>
      <set comment="kpoint 26">
       <r>  -27.7946    1.0000 </r>
       <r>  -27.7889    1.0000 </r>
       <r>  -27.7881    1.0000 </r>
       <r>  -27.7824    1.0000 </r>
       <r>  -27.7815    1.0000 </r>
       <r>  -27.7677    1.0000 </r>
       <r>  -27.7649    1.0000 </r>
       <r>  -27.7629    1.0000 </r>
       <r>  -27.7484    1.0000 </r>
       <r>  -27.7439    1.0000 </r>
       <r>  -16.7714    1.0000 </r>
       <r>  -15.3394    1.0000 </r>
       <r>  -15.1849    1.0000 </r>
       <r>  -14.8855    1.0000 </r>
       <r>  -11.4505    1.0000 </r>
       <r>   -9.3840    1.0000 </r>
       <r>   -7.3492    1.0000 </r>
       <r>   -6.1599    1.0000 </r>
       <r>   -6.0945    1.0000 </r>
       <r>   -5.5576    1.0000 </r>
       <r>   -5.2014    1.0000 </r>
       <r>   -4.7732    1.0000 </r>
       <r>   -4.7214    1.0000 </r>
       <r>   -3.9873    1.0000 </r>
       <r>   -3.4203    1.0000 </r>
       <r>   -2.7170    1.0000 </r>
       <r>   -1.4733    0.0000 </r>
       <r>   -1.2422    0.0000 </r>
       <r>    0.0593    0.0000 </r>
       <r>    0.3619    0.0000 </r>
       <r>    0.9532    0.0000 </r>
       <r>    1.6042    0.0000 </r>
      </set>
      <set comment="kpoint 27">
       <r>  -27.7944    1.0000 </r>
       <r>  -27.7883    1.0000 </r>
       <r>  -27.7879    1.0000 </r>
       <r>  -27.7829    1.0000 </r>
       <r>  -27.7812    1.0000 </r>
       <r>  -27.7674    1.0000 </r>
       <r>  -27.7661    1.0000 </r>
       <r>  -27.7631    1.0000 </r>
       <r>  -27.7482    1.0000 </r>
       <r>  -27.7441    1.0000 </r>
       <r>  -16.6952    1.0000 </r>
       <r>  -15.3148    1.0000 </r>
       <r>  -15.2471    1.0000 </r>
       <r>  -14.9603    1.0000 </r>
       <r>  -11.3241    1.0000 </r>
       <r>   -9.4958    1.0000 </r>
       <r>   -7.2883    1.0000 </r>
       <r>   -6.3951    1.0000 </r>
       <r>   -6.1951    1.0000 </r>
       <r>   -5.5749    1.0000 </r>
       <r>   -5.2247    1.0000 </r>
       <r>   -4.8005    1.0000 </r>
       <r>   -4.6272    1.0000 </r>
       <r>   -3.9139    1.0000 </r>
       <r>   -3.6092    1.0000 </r>
       <r>   -2.7199    1.0000 </r>
       <r>   -1.3908    0.0000 </r>
       <r>   -1.1749    0.0000 </r>
       <r>    0.5068    0.0000 </r>
       <r>    0.5216    0.0000 </r>
       <r>    1.1310    0.0000 </r>
       <r>    1.4643    0.0000 </r>
      </set>
      <set comment="kpoint 28">
       <r>  -27.7941    1.0000 </r>
       <r>  -27.7879    1.0000 </r>
       <r>  -27.7876    1.0000 </r>
       <r>  -27.7835    1.0000 </r>
       <r>  -27.7804    1.0000 </r>
       <r>  -27.7675    1.0000 </r>
       <r>  -27.7670    1.0000 </r>
       <r>  -27.7633    1.0000 </r>
       <r>  -27.7478    1.0000 </r>
       <r>  -27.7444    1.0000 </r>
       <r>  -16.5902    1.0000 </r>
       <r>  -15.3665    1.0000 </r>
       <r>  -15.2826    1.0000 </r>
       <r>  -15.0174    1.0000 </r>
       <r>  -11.1590    1.0000 </r>
       <r>   -9.6499    1.0000 </r>
       <r>   -7.2123    1.0000 </r>
       <r>   -6.5843    1.0000 </r>
       <r>   -6.2780    1.0000 </r>
       <r>   -5.5591    1.0000 </r>
       <r>   -5.3577    1.0000 </r>
       <r>   -4.9195    1.0000 </r>
       <r>   -4.5138    1.0000 </r>
       <r>   -3.8092    1.0000 </r>
       <r>   -3.7721    1.0000 </r>
       <r>   -2.7935    1.0000 </r>
       <r>   -1.1915    0.0000 </r>
       <r>   -1.0643    0.0000 </r>
       <r>    0.6998    0.0000 </r>
       <r>    0.9370    0.0000 </r>
       <r>    1.3242    0.0000 </r>
       <r>    1.4079    0.0000 </r>
      </set>
      <set comment="kpoint 29">
       <r>  -27.7935    1.0000 </r>
       <r>  -27.7882    1.0000 </r>
       <r>  -27.7868    1.0000 </r>
       <r>  -27.7842    1.0000 </r>
       <r>  -27.7792    1.0000 </r>
       <r>  -27.7693    1.0000 </r>
       <r>  -27.7665    1.0000 </r>
       <r>  -27.7637    1.0000 </r>
       <r>  -27.7474    1.0000 </r>
       <r>  -27.7448    1.0000 </r>
       <r>  -16.4587    1.0000 </r>
       <r>  -15.5323    1.0000 </r>
       <r>  -15.2451    1.0000 </r>
       <r>  -15.0561    1.0000 </r>
       <r>  -10.9636    1.0000 </r>
       <r>   -9.8401    1.0000 </r>
       <r>   -7.1313    1.0000 </r>
       <r>   -6.7246    1.0000 </r>
       <r>   -6.3109    1.0000 </r>
       <r>   -5.5538    1.0000 </r>
       <r>   -5.5228    1.0000 </r>
       <r>   -5.0643    1.0000 </r>
       <r>   -4.4249    1.0000 </r>
       <r>   -3.9091    1.0000 </r>
       <r>   -3.6834    1.0000 </r>
       <r>   -2.9156    1.0000 </r>
       <r>   -0.9441    0.0000 </r>
       <r>   -0.9223    0.0000 </r>
       <r>    0.8724    0.0000 </r>
       <r>    1.1475    0.0000 </r>
       <r>    1.4738    0.0000 </r>
       <r>    1.6180    0.0000 </r>
      </set>
      <set comment="kpoint 30">
       <r>  -27.7929    1.0000 </r>
       <r>  -27.7887    1.0000 </r>
       <r>  -27.7860    1.0000 </r>
       <r>  -27.7850    1.0000 </r>
       <r>  -27.7776    1.0000 </r>
       <r>  -27.7712    1.0000 </r>
       <r>  -27.7659    1.0000 </r>
       <r>  -27.7642    1.0000 </r>
       <r>  -27.7469    1.0000 </r>
       <r>  -27.7452    1.0000 </r>
       <r>  -16.3042    1.0000 </r>
       <r>  -15.7211    1.0000 </r>
       <r>  -15.2051    1.0000 </r>
       <r>  -15.0887    1.0000 </r>
       <r>  -10.7458    1.0000 </r>
       <r>  -10.0558    1.0000 </r>
       <r>   -7.0564    1.0000 </r>
       <r>   -6.8242    1.0000 </r>
       <r>   -6.2745    1.0000 </r>
       <r>   -5.7743    1.0000 </r>
       <r>   -5.4710    1.0000 </r>
       <r>   -5.2062    1.0000 </r>
       <r>   -4.3424    1.0000 </r>
       <r>   -4.0286    1.0000 </r>
       <r>   -3.5463    1.0000 </r>
       <r>   -3.0643    1.0000 </r>
       <r>   -0.7811    0.0000 </r>
       <r>   -0.7352    0.0000 </r>
       <r>    1.0252    0.0000 </r>
       <r>    1.2163    0.0000 </r>
       <r>    1.5363    0.0000 </r>
       <r>    1.6825    0.0000 </r>
      </set>
      <set comment="kpoint 31">
       <r>  -27.7921    1.0000 </r>
       <r>  -27.7894    1.0000 </r>
       <r>  -27.7859    1.0000 </r>
       <r>  -27.7852    1.0000 </r>
       <r>  -27.7757    1.0000 </r>
       <r>  -27.7732    1.0000 </r>
       <r>  -27.7654    1.0000 </r>
       <r>  -27.7647    1.0000 </r>
       <r>  -27.7464    1.0000 </r>
       <r>  -27.7457    1.0000 </r>
       <r>  -16.1311    1.0000 </r>
       <r>  -15.9160    1.0000 </r>
       <r>  -15.1648    1.0000 </r>
       <r>  -15.1224    1.0000 </r>
       <r>  -10.5132    1.0000 </r>
       <r>  -10.2850    1.0000 </r>
       <r>   -6.9906    1.0000 </r>
       <r>   -6.8971    1.0000 </r>
       <r>   -6.1668    1.0000 </r>
       <r>   -5.9860    1.0000 </r>
       <r>   -5.4010    1.0000 </r>
       <r>   -5.3268    1.0000 </r>
       <r>   -4.2527    1.0000 </r>
       <r>   -4.1358    1.0000 </r>
       <r>   -3.4032    1.0000 </r>
       <r>   -3.2237    1.0000 </r>
       <r>   -0.6871    0.0000 </r>
       <r>   -0.6296    0.0000 </r>
       <r>    1.1484    0.0000 </r>
       <r>    1.2683    0.0000 </r>
       <r>    1.5213    0.0000 </r>
       <r>    1.5442    0.0000 </r>
      </set>
      <set comment="kpoint 32">
       <r>  -27.7913    1.0000 </r>
       <r>  -27.7901    1.0000 </r>
       <r>  -27.7868    1.0000 </r>
       <r>  -27.7843    1.0000 </r>
       <r>  -27.7753    1.0000 </r>
       <r>  -27.7736    1.0000 </r>
       <r>  -27.7652    1.0000 </r>
       <r>  -27.7649    1.0000 </r>
       <r>  -27.7462    1.0000 </r>
       <r>  -27.7459    1.0000 </r>
       <r>  -16.1059    1.0000 </r>
       <r>  -15.9454    1.0000 </r>
       <r>  -15.1592    1.0000 </r>
       <r>  -15.1259    1.0000 </r>
       <r>  -10.5168    1.0000 </r>
       <r>  -10.2741    1.0000 </r>
       <r>   -6.9608    1.0000 </r>
       <r>   -6.9243    1.0000 </r>
       <r>   -6.1584    1.0000 </r>
       <r>   -6.0037    1.0000 </r>
       <r>   -5.4214    1.0000 </r>
       <r>   -5.3064    1.0000 </r>
       <r>   -4.2318    1.0000 </r>
       <r>   -4.1505    1.0000 </r>
       <r>   -3.3837    1.0000 </r>
       <r>   -3.2572    1.0000 </r>
       <r>   -0.6887    0.0000 </r>
       <r>   -0.6425    0.0000 </r>
       <r>    1.1913    0.0000 </r>
       <r>    1.1972    0.0000 </r>
       <r>    1.5313    0.0000 </r>
       <r>    1.5478    0.0000 </r>
      </set>
      <set comment="kpoint 33">
       <r>  -27.7909    1.0000 </r>
       <r>  -27.7905    1.0000 </r>
       <r>  -27.7876    1.0000 </r>
       <r>  -27.7836    1.0000 </r>
       <r>  -27.7772    1.0000 </r>
       <r>  -27.7715    1.0000 </r>
       <r>  -27.7658    1.0000 </r>
       <r>  -27.7644    1.0000 </r>
       <r>  -27.7468    1.0000 </r>
       <r>  -27.7454    1.0000 </r>
       <r>  -16.2829    1.0000 </r>
       <r>  -15.7548    1.0000 </r>
       <r>  -15.1985    1.0000 </r>
       <r>  -15.0887    1.0000 </r>
       <r>  -10.7423    1.0000 </r>
       <r>  -10.0387    1.0000 </r>
       <r>   -7.0324    1.0000 </r>
       <r>   -6.8426    1.0000 </r>
       <r>   -6.2645    1.0000 </r>
       <r>   -5.8093    1.0000 </r>
       <r>   -5.4943    1.0000 </r>
       <r>   -5.1833    1.0000 </r>
       <r>   -4.3168    1.0000 </r>
       <r>   -4.0349    1.0000 </r>
       <r>   -3.5384    1.0000 </r>
       <r>   -3.1134    1.0000 </r>
       <r>   -0.8130    0.0000 </r>
       <r>   -0.7466    0.0000 </r>
       <r>    1.0436    0.0000 </r>
       <r>    1.1603    0.0000 </r>
       <r>    1.5690    0.0000 </r>
       <r>    1.6565    0.0000 </r>
      </set>
      <set comment="kpoint 34">
       <r>  -27.7917    1.0000 </r>
       <r>  -27.7897    1.0000 </r>
       <r>  -27.7884    1.0000 </r>
       <r>  -27.7830    1.0000 </r>
       <r>  -27.7788    1.0000 </r>
       <r>  -27.7695    1.0000 </r>
       <r>  -27.7664    1.0000 </r>
       <r>  -27.7640    1.0000 </r>
       <r>  -27.7473    1.0000 </r>
       <r>  -27.7449    1.0000 </r>
       <r>  -16.4412    1.0000 </r>
       <r>  -15.5703    1.0000 </r>
       <r>  -15.2385    1.0000 </r>
       <r>  -15.0511    1.0000 </r>
       <r>  -10.9541    1.0000 </r>
       <r>   -9.8191    1.0000 </r>
       <r>   -7.1187    1.0000 </r>
       <r>   -6.7305    1.0000 </r>
       <r>   -6.2911    1.0000 </r>
       <r>   -5.6089    1.0000 </r>
       <r>   -5.5510    1.0000 </r>
       <r>   -5.0387    1.0000 </r>
       <r>   -4.3966    1.0000 </r>
       <r>   -3.9044    1.0000 </r>
       <r>   -3.6841    1.0000 </r>
       <r>   -2.9801    1.0000 </r>
       <r>   -1.0384    0.0000 </r>
       <r>   -0.8965    0.0000 </r>
       <r>    0.8789    0.0000 </r>
       <r>    1.1296    0.0000 </r>
       <r>    1.5084    0.0000 </r>
       <r>    1.7046    0.0000 </r>
      </set>
      <set comment="kpoint 35">
       <r>  -27.7924    1.0000 </r>
       <r>  -27.7891    1.0000 </r>
       <r>  -27.7890    1.0000 </r>
       <r>  -27.7826    1.0000 </r>
       <r>  -27.7800    1.0000 </r>
       <r>  -27.7676    1.0000 </r>
       <r>  -27.7669    1.0000 </r>
       <r>  -27.7637    1.0000 </r>
       <r>  -27.7477    1.0000 </r>
       <r>  -27.7445    1.0000 </r>
       <r>  -16.5763    1.0000 </r>
       <r>  -15.4072    1.0000 </r>
       <r>  -15.2765    1.0000 </r>
       <r>  -15.0071    1.0000 </r>
       <r>  -11.1457    1.0000 </r>
       <r>   -9.6282    1.0000 </r>
       <r>   -7.2103    1.0000 </r>
       <r>   -6.5751    1.0000 </r>
       <r>   -6.2472    1.0000 </r>
       <r>   -5.5928    1.0000 </r>
       <r>   -5.4306    1.0000 </r>
       <r>   -4.8945    1.0000 </r>
       <r>   -4.4857    1.0000 </r>
       <r>   -3.8145    1.0000 </r>
       <r>   -3.7529    1.0000 </r>
       <r>   -2.8716    1.0000 </r>
       <r>   -1.2953    0.0000 </r>
       <r>   -1.0472    0.0000 </r>
       <r>    0.7020    0.0000 </r>
       <r>    1.0168    0.0000 </r>
       <r>    1.3593    0.0000 </r>
       <r>    1.4507    0.0000 </r>
      </set>
      <set comment="kpoint 36">
       <r>  -27.7931    1.0000 </r>
       <r>  -27.7895    1.0000 </r>
       <r>  -27.7887    1.0000 </r>
       <r>  -27.7825    1.0000 </r>
       <r>  -27.7807    1.0000 </r>
       <r>  -27.7674    1.0000 </r>
       <r>  -27.7659    1.0000 </r>
       <r>  -27.7635    1.0000 </r>
       <r>  -27.7481    1.0000 </r>
       <r>  -27.7442    1.0000 </r>
       <r>  -16.6849    1.0000 </r>
       <r>  -15.3098    1.0000 </r>
[...]
       <r>    1.2402    0.0000 </r>
       <r>    1.4225    0.0000 </r>
      </set>
      <set comment="kpoint 96">
       <r>  -27.7923    1.0000 </r>
       <r>  -27.7913    1.0000 </r>
       <r>  -27.7854    1.0000 </r>
       <r>  -27.7831    1.0000 </r>
       <r>  -27.7757    1.0000 </r>
       <r>  -27.7740    1.0000 </r>
       <r>  -27.7651    1.0000 </r>
       <r>  -27.7647    1.0000 </r>
       <r>  -27.7463    1.0000 </r>
       <r>  -27.7459    1.0000 </r>
       <r>  -16.1712    1.0000 </r>
       <r>  -16.0201    1.0000 </r>
       <r>  -15.1265    1.0000 </r>
       <r>  -15.0810    1.0000 </r>
       <r>  -10.5405    1.0000 </r>
       <r>  -10.2902    1.0000 </r>
       <r>   -6.7729    1.0000 </r>
       <r>   -6.7507    1.0000 </r>
       <r>   -6.0413    1.0000 </r>
       <r>   -5.7594    1.0000 </r>
       <r>   -5.3864    1.0000 </r>
       <r>   -5.2854    1.0000 </r>
       <r>   -4.2473    1.0000 </r>
       <r>   -4.1552    1.0000 </r>
       <r>   -3.1123    1.0000 </r>
       <r>   -2.9688    1.0000 </r>
       <r>   -0.9179    0.0000 </r>
       <r>   -0.7349    0.0000 </r>
       <r>    0.8365    0.0000 </r>
       <r>    1.0526    0.0000 </r>
       <r>    1.1778    0.0000 </r>
       <r>    1.3853    0.0000 </r>
      </set>
      <set comment="kpoint 97">
       <r>  -27.7915    1.0000 </r>
       <r>  -27.7910    1.0000 </r>
       <r>  -27.7861    1.0000 </r>
       <r>  -27.7839    1.0000 </r>
       <r>  -27.7751    1.0000 </r>
       <r>  -27.7731    1.0000 </r>
       <r>  -27.7655    1.0000 </r>
       <r>  -27.7650    1.0000 </r>
       <r>  -27.7464    1.0000 </r>
       <r>  -27.7459    1.0000 </r>
       <r>  -16.2182    1.0000 </r>
       <r>  -16.0397    1.0000 </r>
       <r>  -15.1220    1.0000 </r>
       <r>  -15.0624    1.0000 </r>
       <r>  -10.4378    1.0000 </r>
       <r>  -10.1550    1.0000 </r>
       <r>   -6.7960    1.0000 </r>
       <r>   -6.7342    1.0000 </r>
       <r>   -6.1467    1.0000 </r>
       <r>   -5.9674    1.0000 </r>
       <r>   -5.2935    1.0000 </r>
       <r>   -5.1596    1.0000 </r>
       <r>   -4.2374    1.0000 </r>
       <r>   -4.1030    1.0000 </r>
       <r>   -3.3009    1.0000 </r>
       <r>   -3.1530    1.0000 </r>
       <r>   -0.6596    0.0000 </r>
       <r>   -0.6069    0.0000 </r>
       <r>    0.7486    0.0000 </r>
       <r>    0.9798    0.0000 </r>
       <r>    1.1683    0.0000 </r>
       <r>    1.3109    0.0000 </r>
      </set>
      <set comment="kpoint 98">
       <r>  -27.7909    1.0000 </r>
       <r>  -27.7908    1.0000 </r>
       <r>  -27.7865    1.0000 </r>
       <r>  -27.7847    1.0000 </r>
       <r>  -27.7748    1.0000 </r>
       <r>  -27.7724    1.0000 </r>
       <r>  -27.7658    1.0000 </r>
       <r>  -27.7653    1.0000 </r>
       <r>  -27.7465    1.0000 </r>
       <r>  -27.7459    1.0000 </r>
       <r>  -16.2499    1.0000 </r>
       <r>  -16.0512    1.0000 </r>
       <r>  -15.1204    1.0000 </r>
       <r>  -15.0501    1.0000 </r>
       <r>  -10.3620    1.0000 </r>
       <r>  -10.0605    1.0000 </r>
       <r>   -6.8519    1.0000 </r>
       <r>   -6.6846    1.0000 </r>
       <r>   -6.2102    1.0000 </r>
       <r>   -6.1436    1.0000 </r>
       <r>   -5.1821    1.0000 </r>
       <r>   -5.0435    1.0000 </r>
       <r>   -4.2564    1.0000 </r>
       <r>   -4.0607    1.0000 </r>
       <r>   -3.4374    1.0000 </r>
       <r>   -3.3056    1.0000 </r>
       <r>   -0.5371    0.0000 </r>
       <r>   -0.4642    0.0000 </r>
       <r>    0.7083    0.0000 </r>
       <r>    0.9181    0.0000 </r>
       <r>    1.1813    0.0000 </r>
       <r>    1.2326    0.0000 </r>
      </set>
     </set>
    </set>
   </array>
  </eigenvalues>
  <separator name="orbital magnetization" >
   <v name="MAGDIPOLOUT">      0.00000000      0.00000000      0.00000000</v>
  </separator>
  <dos>
   <i name="efermi">     -2.37227754 </i>
   <total>
    <array>
     <dimension dim="1">gridpoints</dimension>
     <dimension dim="2">spin</dimension>
     <field>energy</field>
     <field>total</field>
     <field>integrated</field>
     <set>
      <set comment="spin 1">
       <r>   -29.2853     0.0000     0.0000 </r>
       <r>   -29.1760     0.0000     0.0000 </r>
       <r>   -29.0667     0.0000     0.0000 </r>
       <r>   -28.9574     0.0000     0.0000 </r>
       <r>   -28.8481     0.0000     0.0000 </r>
       <r>   -28.7388     0.0000     0.0000 </r>
       <r>   -28.6295     0.0000     0.0000 </r>
       <r>   -28.5202     0.0000     0.0000 </r>
       <r>   -28.4110     0.0000     0.0000 </r>
       <r>   -28.3017     0.0000     0.0000 </r>
       <r>   -28.1924     0.0000     0.0000 </r>
       <r>   -28.0831     0.0000     0.0000 </r>
       <r>   -27.9738     0.0000     0.0000 </r>
       <r>   -27.8645     0.0000     0.0000 </r>
       <r>   -27.7552   142.2714    15.5490 </r>
       <r>   -27.6459    40.7256    20.0000 </r>
       <r>   -27.5366     0.0000    20.0000 </r>
       <r>   -27.4273     0.0000    20.0000 </r>
       <r>   -27.3180     0.0000    20.0000 </r>
       <r>   -27.2087     0.0000    20.0000 </r>
       <r>   -27.0995     0.0000    20.0000 </r>
       <r>   -26.9902     0.0000    20.0000 </r>
       <r>   -26.8809     0.0000    20.0000 </r>
       <r>   -26.7716     0.0000    20.0000 </r>
       <r>   -26.6623     0.0000    20.0000 </r>
       <r>   -26.5530     0.0000    20.0000 </r>
       <r>   -26.4437     0.0000    20.0000 </r>
       <r>   -26.3344     0.0000    20.0000 </r>
       <r>   -26.2251     0.0000    20.0000 </r>
       <r>   -26.1158     0.0000    20.0000 </r>
       <r>   -26.0065     0.0000    20.0000 </r>
       <r>   -25.8973     0.0000    20.0000 </r>
       <r>   -25.7880     0.0000    20.0000 </r>
       <r>   -25.6787     0.0000    20.0000 </r>
       <r>   -25.5694     0.0000    20.0000 </r>
       <r>   -25.4601     0.0000    20.0000 </r>
       <r>   -25.3508     0.0000    20.0000 </r>
       <r>   -25.2415     0.0000    20.0000 </r>
       <r>   -25.1322     0.0000    20.0000 </r>
       <r>   -25.0229     0.0000    20.0000 </r>
       <r>   -24.9136     0.0000    20.0000 </r>
       <r>   -24.8043     0.0000    20.0000 </r>
       <r>   -24.6950     0.0000    20.0000 </r>
       <r>   -24.5858     0.0000    20.0000 </r>
       <r>   -24.4765     0.0000    20.0000 </r>
       <r>   -24.3672     0.0000    20.0000 </r>
       <r>   -24.2579     0.0000    20.0000 </r>
       <r>   -24.1486     0.0000    20.0000 </r>
       <r>   -24.0393     0.0000    20.0000 </r>
       <r>   -23.9300     0.0000    20.0000 </r>
       <r>   -23.8207     0.0000    20.0000 </r>
       <r>   -23.7114     0.0000    20.0000 </r>
       <r>   -23.6021     0.0000    20.0000 </r>
       <r>   -23.4928     0.0000    20.0000 </r>
       <r>   -23.3835     0.0000    20.0000 </r>
       <r>   -23.2743     0.0000    20.0000 </r>
       <r>   -23.1650     0.0000    20.0000 </r>
       <r>   -23.0557     0.0000    20.0000 </r>
       <r>   -22.9464     0.0000    20.0000 </r>
       <r>   -22.8371     0.0000    20.0000 </r>
       <r>   -22.7278     0.0000    20.0000 </r>
       <r>   -22.6185     0.0000    20.0000 </r>
       <r>   -22.5092     0.0000    20.0000 </r>
       <r>   -22.3999     0.0000    20.0000 </r>
       <r>   -22.2906     0.0000    20.0000 </r>
       <r>   -22.1813     0.0000    20.0000 </r>
       <r>   -22.0721     0.0000    20.0000 </r>
       <r>   -21.9628     0.0000    20.0000 </r>
       <r>   -21.8535     0.0000    20.0000 </r>
       <r>   -21.7442     0.0000    20.0000 </r>
       <r>   -21.6349     0.0000    20.0000 </r>
       <r>   -21.5256     0.0000    20.0000 </r>
       <r>   -21.4163     0.0000    20.0000 </r>
       <r>   -21.3070     0.0000    20.0000 </r>
       <r>   -21.1977     0.0000    20.0000 </r>
       <r>   -21.0884     0.0000    20.0000 </r>
       <r>   -20.9791     0.0000    20.0000 </r>
       <r>   -20.8698     0.0000    20.0000 </r>
       <r>   -20.7606     0.0000    20.0000 </r>
       <r>   -20.6513     0.0000    20.0000 </r>
       <r>   -20.5420     0.0000    20.0000 </r>
       <r>   -20.4327     0.0000    20.0000 </r>
       <r>   -20.3234     0.0000    20.0000 </r>
       <r>   -20.2141     0.0000    20.0000 </r>
       <r>   -20.1048     0.0000    20.0000 </r>
       <r>   -19.9955     0.0000    20.0000 </r>
       <r>   -19.8862     0.0000    20.0000 </r>
       <r>   -19.7769     0.0000    20.0000 </r>
       <r>   -19.6676     0.0000    20.0000 </r>
       <r>   -19.5584     0.0000    20.0000 </r>
       <r>   -19.4491     0.0000    20.0000 </r>
       <r>   -19.3398     0.0000    20.0000 </r>
       <r>   -19.2305     0.0000    20.0000 </r>
       <r>   -19.1212     0.0000    20.0000 </r>
       <r>   -19.0119     0.0000    20.0000 </r>
       <r>   -18.9026     0.0000    20.0000 </r>
       <r>   -18.7933     0.0000    20.0000 </r>
       <r>   -18.6840     0.0000    20.0000 </r>
       <r>   -18.5747     0.0000    20.0000 </r>
       <r>   -18.4654     0.0000    20.0000 </r>
       <r>   -18.3561     0.0000    20.0000 </r>
       <r>   -18.2469     0.0000    20.0000 </r>
       <r>   -18.1376     0.0000    20.0000 </r>
       <r>   -18.0283     0.0000    20.0000 </r>
       <r>   -17.9190     0.0000    20.0000 </r>
       <r>   -17.8097     0.0000    20.0000 </r>
       <r>   -17.7004     0.0000    20.0000 </r>
       <r>   -17.5911     0.0000    20.0000 </r>
       <r>   -17.4818     0.0000    20.0000 </r>
       <r>   -17.3725     0.0000    20.0000 </r>
       <r>   -17.2632     0.0000    20.0000 </r>
       <r>   -17.1539     0.0000    20.0000 </r>
       <r>   -17.0446     0.0000    20.0000 </r>
       <r>   -16.9354     0.0019    20.0002 </r>
       <r>   -16.8261     1.3463    20.1474 </r>
       <r>   -16.7168     1.9968    20.3656 </r>
       <r>   -16.6075     1.8378    20.5664 </r>
       <r>   -16.4982     1.9299    20.7774 </r>
       <r>   -16.3889     2.3916    21.0387 </r>
       <r>   -16.2796     2.1014    21.2684 </r>
       <r>   -16.1703     2.4444    21.5355 </r>
       <r>   -16.0610     2.8153    21.8432 </r>
       <r>   -15.9517     3.8368    22.2626 </r>
       <r>   -15.8424     3.0952    22.6009 </r>
       <r>   -15.7332     3.0120    22.9300 </r>
       <r>   -15.6239     1.5308    23.0974 </r>
       <r>   -15.5146     2.0843    23.3252 </r>
       <r>   -15.4053     1.1728    23.4533 </r>
       <r>   -15.2960     5.8431    24.0919 </r>
       <r>   -15.1867     8.2255    24.9909 </r>
       <r>   -15.0774    14.0316    26.5245 </r>
       <r>   -14.9681     8.2004    27.4207 </r>
       <r>   -14.8588     3.5110    27.8044 </r>
       <r>   -14.7495     1.7571    27.9965 </r>
       <r>   -14.6402     0.0324    28.0000 </r>
       <r>   -14.5309     0.0000    28.0000 </r>
       <r>   -14.4217     0.0000    28.0000 </r>
       <r>   -14.3124     0.0000    28.0000 </r>
       <r>   -14.2031     0.0000    28.0000 </r>
       <r>   -14.0938     0.0000    28.0000 </r>
       <r>   -13.9845     0.0000    28.0000 </r>
       <r>   -13.8752     0.0000    28.0000 </r>
       <r>   -13.7659     0.0000    28.0000 </r>
       <r>   -13.6566     0.0000    28.0000 </r>
       <r>   -13.5473     0.0000    28.0000 </r>
       <r>   -13.4380     0.0000    28.0000 </r>
       <r>   -13.3287     0.0000    28.0000 </r>
       <r>   -13.2194     0.0000    28.0000 </r>
       <r>   -13.1102     0.0000    28.0000 </r>
       <r>   -13.0009     0.0000    28.0000 </r>
       <r>   -12.8916     0.0000    28.0000 </r>
       <r>   -12.7823     0.0000    28.0000 </r>
       <r>   -12.6730     0.0000    28.0000 </r>
       <r>   -12.5637     0.0000    28.0000 </r>
       <r>   -12.4544     0.0000    28.0000 </r>
       <r>   -12.3451     0.0000    28.0000 </r>
       <r>   -12.2358     0.0000    28.0000 </r>
       <r>   -12.1265     0.0000    28.0000 </r>
       <r>   -12.0172     0.0000    28.0000 </r>
       <r>   -11.9080     0.0000    28.0000 </r>
       <r>   -11.7987     0.0315    28.0034 </r>
       <r>   -11.6894     0.6400    28.0734 </r>
       <r>   -11.5801     0.5527    28.1338 </r>
       <r>   -11.4708     0.7671    28.2176 </r>
       <r>   -11.3615     0.9185    28.3180 </r>
       <r>   -11.2522     1.0240    28.4299 </r>
       <r>   -11.1429     1.4874    28.5925 </r>
       <r>   -11.0336     0.4922    28.6463 </r>
       <r>   -10.9243     3.0776    28.9826 </r>
       <r>   -10.8150     1.7912    29.1784 </r>
       <r>   -10.7057     3.9477    29.6098 </r>
       <r>   -10.5965     2.5453    29.8880 </r>
       <r>   -10.4872     1.7667    30.0811 </r>
       <r>   -10.3779     2.4164    30.3452 </r>
       <r>   -10.2686     1.2464    30.4814 </r>
       <r>   -10.1593     1.6993    30.6672 </r>
       <r>   -10.0500     1.1706    30.7951 </r>
       <r>    -9.9407     1.4151    30.9498 </r>
       <r>    -9.8314     1.2512    31.0865 </r>
       <r>    -9.7221     1.3915    31.2386 </r>
       <r>    -9.6128     1.5472    31.4077 </r>
       <r>    -9.5035     1.2697    31.5464 </r>
       <r>    -9.3943     1.3833    31.6976 </r>
       <r>    -9.2850     1.6919    31.8825 </r>
       <r>    -9.1757     1.0745    32.0000 </r>
       <r>    -9.0664     0.0002    32.0000 </r>
       <r>    -8.9571     0.0000    32.0000 </r>
       <r>    -8.8478     0.0000    32.0000 </r>
       <r>    -8.7385     0.0000    32.0000 </r>
       <r>    -8.6292     0.0000    32.0000 </r>
       <r>    -8.5199     0.0000    32.0000 </r>
       <r>    -8.4106     0.0000    32.0000 </r>
       <r>    -8.3013     0.0000    32.0000 </r>
       <r>    -8.1920     0.0000    32.0000 </r>
       <r>    -8.0828     0.0000    32.0000 </r>
       <r>    -7.9735     0.0000    32.0000 </r>
       <r>    -7.8642     0.0000    32.0000 </r>
       <r>    -7.7549     0.0000    32.0000 </r>
       <r>    -7.6456     0.0000    32.0000 </r>
       <r>    -7.5363     0.0000    32.0000 </r>
       <r>    -7.4270     1.3256    32.1449 </r>
       <r>    -7.3177     2.6054    32.4296 </r>
       <r>    -7.2084     2.2389    32.6743 </r>
       <r>    -7.0991     1.8798    32.8798 </r>
       <r>    -6.9898     1.8004    33.0765 </r>
       <r>    -6.8805     2.3998    33.3388 </r>
       <r>    -6.7713    10.5632    34.4933 </r>
       <r>    -6.6620     5.2499    35.0670 </r>
       <r>    -6.5527     2.0553    35.2917 </r>
       <r>    -6.4434     1.9202    35.5015 </r>
       <r>    -6.3341     2.4244    35.7665 </r>
       <r>    -6.2248     4.1129    36.2160 </r>
       <r>    -6.1155     7.2226    37.0054 </r>
       <r>    -6.0062     4.0741    37.4506 </r>
       <r>    -5.8969     4.5437    37.9472 </r>
       <r>    -5.7876     3.7351    38.3555 </r>
       <r>    -5.6783     4.6078    38.8591 </r>
       <r>    -5.5691     4.7393    39.3770 </r>
       <r>    -5.4598     7.4515    40.1914 </r>
       <r>    -5.3505     8.5802    41.1292 </r>
       <r>    -5.2412     6.6087    41.8514 </r>
       <r>    -5.1319     6.1878    42.5277 </r>
       <r>    -5.0226     5.1082    43.0860 </r>
       <r>    -4.9133     3.0665    43.4212 </r>
       <r>    -4.8040     2.8405    43.7316 </r>
       <r>    -4.6947     3.3508    44.0978 </r>
       <r>    -4.5854     3.8777    44.5216 </r>
       <r>    -4.4761     2.1038    44.7515 </r>
       <r>    -4.3668     5.0263    45.3009 </r>
       <r>    -4.2576     6.7603    46.0397 </r>
       <r>    -4.1483     3.8503    46.4605 </r>
       <r>    -4.0390     4.6780    46.9718 </r>
       <r>    -3.9297     3.7261    47.3790 </r>
       <r>    -3.8204     3.6002    47.7725 </r>
       <r>    -3.7111     3.5875    48.1646 </r>
       <r>    -3.6018     2.7299    48.4629 </r>
       <r>    -3.4925     2.9564    48.7860 </r>
       <r>    -3.3832     2.9025    49.1032 </r>
       <r>    -3.2739     2.8915    49.4193 </r>
       <r>    -3.1646     2.4154    49.6832 </r>
       <r>    -3.0553     3.2308    50.0363 </r>
       <r>    -2.9461     3.4114    50.4092 </r>
       <r>    -2.8368     3.9111    50.8366 </r>
       <r>    -2.7275     4.5761    51.3367 </r>
       <r>    -2.6182     3.6348    51.7340 </r>
       <r>    -2.5089     2.3331    51.9890 </r>
       <r>    -2.3996     0.1007    52.0000 </r>
       <r>    -2.2903     0.0000    52.0000 </r>
       <r>    -2.1810     0.0000    52.0000 </r>
       <r>    -2.0717     0.0000    52.0000 </r>
       <r>    -1.9624     0.0000    52.0000 </r>
       <r>    -1.8531     0.0189    52.0021 </r>
       <r>    -1.7439     0.1759    52.0213 </r>
       <r>    -1.6346     0.6380    52.0910 </r>
       <r>    -1.5253     1.7442    52.2817 </r>
       <r>    -1.4160     3.5951    52.6746 </r>
       <r>    -1.3067     3.8647    53.0970 </r>
       <r>    -1.1974     3.4948    53.4789 </r>
       <r>    -1.0881     4.0662    53.9233 </r>
       <r>    -0.9788     2.9477    54.2455 </r>
       <r>    -0.8695     4.9390    54.7853 </r>
       <r>    -0.7602     4.1301    55.2366 </r>
       <r>    -0.6509     3.0725    55.5724 </r>
       <r>    -0.5416     2.1106    55.8031 </r>
       <r>    -0.4324     2.0424    56.0263 </r>
       <r>    -0.3231     1.1573    56.1528 </r>
       <r>    -0.2138     0.4246    56.1992 </r>
       <r>    -0.1045     0.1479    56.2154 </r>
       <r>     0.0048     0.1713    56.2341 </r>
       <r>     0.1141     0.3161    56.2687 </r>
       <r>     0.2234     1.5559    56.4387 </r>
       <r>     0.3327     1.5853    56.6120 </r>
       <r>     0.4420     1.6807    56.7956 </r>
       <r>     0.5513     2.4521    57.0636 </r>
       <r>     0.6606     1.8546    57.2663 </r>
       <r>     0.7699     4.1399    57.7188 </r>
       <r>     0.8791     2.9782    58.0443 </r>
       <r>     0.9884     5.6494    58.6617 </r>
       <r>     1.0977     8.1295    59.5502 </r>
       <r>     1.2070     7.6481    60.3861 </r>
       <r>     1.3163     5.8412    61.0245 </r>
       <r>     1.4256     7.8138    61.8785 </r>
       <r>     1.5349     5.2665    62.4541 </r>
       <r>     1.6442     6.1112    63.1220 </r>
       <r>     1.7535     4.0304    63.5624 </r>
       <r>     1.8628     2.5583    63.8420 </r>
       <r>     1.9721     1.0067    63.9521 </r>
       <r>     2.0813     0.4386    64.0000 </r>
       <r>     2.1906     0.0000    64.0000 </r>
       <r>     2.2999     0.0000    64.0000 </r>
       <r>     2.4092     0.0000    64.0000 </r>
       <r>     2.5185     0.0000    64.0000 </r>
       <r>     2.6278     0.0000    64.0000 </r>
       <r>     2.7371     0.0000    64.0000 </r>
       <r>     2.8464     0.0000    64.0000 </r>
       <r>     2.9557     0.0000    64.0000 </r>
       <r>     3.0650     0.0000    64.0000 </r>
       <r>     3.1743     0.0000    64.0000 </r>
       <r>     3.2836     0.0000    64.0000 </r>
       <r>     3.3928     0.0000    64.0000 </r>
       <r>     3.5021     0.0000    64.0000 </r>
      </set>
     </set>
    </array>
   </total>
  </dos>
 </calculation>
 <structure name="finalpos" >
  <crystal>
   <varray name="basis" >
    <v>       4.90601600       0.02453100       0.00000000 </v>
    <v>       0.02785600       5.57113200       0.00000000 </v>
    <v>       0.00000000       0.00000000      18.07929100 </v>
   </varray>
   <i name="volume">    494.13196151 </i>
   <varray name="rec_basis" >
    <v>       0.20383647      -0.00101919       0.00000000 </v>
    <v>      -0.00089754       0.17950122       0.00000000 </v>
    <v>       0.00000000       0.00000000       0.05531190 </v>
   </varray>
  </crystal>
  <varray name="positions" >
   <v>       0.50000000       0.50000000       0.49984252 </v>
   <v>       0.00000000       0.00000000       0.49984252 </v>
   <v>       0.25000000       0.25000000       0.41510435 </v>
   <v>       0.75000000       0.75000000       0.41510435 </v>
   <v>       0.75000000       0.25000000       0.58505313 </v>
   <v>       0.25000000       0.75000000       0.58505313 </v>
  </varray>
 </structure>
</modeling>
