<?xml version="1.0" encoding="ISO-8859-1"?>
<modeling>
 <generator>
  <i name="program" type="string">vasp </i>
  <i name="version" type="string">5.4.1  </i>
  <i name="subversion" type="string">24Jun15 (build Nov 20 2020 10:29:34) complex                          parallel </i>
  <i name="platform" type="string">IFC91_ompi </i>
  <i name="date" type="string">2021 09 09 </i>
  <i name="time" type="string">13:43:56 </i>
 </generator>
 <incar>
  <i type="string" name="PREC">a</i>
  <i type="string" name="ALGO"> Normal</i>
  <i type="int" name="ISPIN">     1</i>
  <i type="int" name="ICHARG">     2</i>
  <i type="int" name="NELM">   250</i>
  <i type="int" name="NELMDL">    -5</i>
  <i type="int" name="NELMIN">     6</i>
  <i type="int" name="IBRION">     2</i>
  <i name="EDIFF">      0.00001000</i>
  <i name="EDIFFG">     -0.01000000</i>
  <i type="int" name="NSW">   200</i>
  <i type="int" name="ISIF">     2</i>
  <i name="ENCUT">    520.00000000</i>
  <i name="POTIM">      0.30000000</i>
  <i type="logical" name="LREAL"> F  </i>
  <i type="int" name="ISMEAR">     0</i>
  <i name="SIGMA">      0.02000000</i>
  <i type="logical" name="LWAVE"> F  </i>
  <i type="logical" name="LCHARG"> F  </i>
  <i type="logical" name="LAECHG"> F  </i>
  <v type="int" name="KPOINT_BSE">    -1     0     0     0</v>
  <i type="int" name="NELM">   250</i>
 </incar>
 <kpoints>
  <generation param="Gamma">
   <v type="int" name="divisions">      21       15        1 </v>
   <v name="usershift">      0.00000000       0.00000000       0.00000000 </v>
   <v name="genvec1">      0.04761905       0.00000000       0.00000000 </v>
   <v name="genvec2">      0.00000000       0.06666667       0.00000000 </v>
   <v name="genvec3">      0.00000000      -0.00000000       1.00000000 </v>
   <v name="shift">      0.00000000       0.00000000       0.00000000 </v>
  </generation>
  <varray name="kpointlist" >
   <v>       0.00000000       0.00000000       0.00000000 </v>
   <v>       0.04761905       0.00000000       0.00000000 </v>
   <v>       0.09523810       0.00000000       0.00000000 </v>
   <v>       0.14285714       0.00000000       0.00000000 </v>
   <v>       0.19047619       0.00000000       0.00000000 </v>
   <v>       0.23809524       0.00000000       0.00000000 </v>
   <v>       0.28571429       0.00000000       0.00000000 </v>
   <v>       0.33333333       0.00000000       0.00000000 </v>
   <v>       0.38095238       0.00000000       0.00000000 </v>
   <v>       0.42857143       0.00000000       0.00000000 </v>
   <v>       0.47619048       0.00000000       0.00000000 </v>
   <v>       0.00000000       0.06666667       0.00000000 </v>
   <v>       0.04761905       0.06666667       0.00000000 </v>
   <v>       0.09523810       0.06666667       0.00000000 </v>
   <v>       0.14285714       0.06666667       0.00000000 </v>
   <v>       0.19047619       0.06666667       0.00000000 </v>
   <v>       0.23809524       0.06666667       0.00000000 </v>
   <v>       0.28571429       0.06666667       0.00000000 </v>
   <v>       0.33333333       0.06666667       0.00000000 </v>
   <v>       0.38095238       0.06666667       0.00000000 </v>
   <v>       0.42857143       0.06666667       0.00000000 </v>
   <v>       0.47619048       0.06666667       0.00000000 </v>
   <v>      -0.47619048       0.06666667       0.00000000 </v>
   <v>      -0.42857143       0.06666667       0.00000000 </v>
   <v>      -0.38095238       0.06666667       0.00000000 </v>
   <v>      -0.33333333       0.06666667       0.00000000 </v>
   <v>      -0.28571429       0.06666667       0.00000000 </v>
   <v>      -0.23809524       0.06666667       0.00000000 </v>
   <v>      -0.19047619       0.06666667       0.00000000 </v>
   <v>      -0.14285714       0.06666667       0.00000000 </v>
   <v>      -0.09523810       0.06666667       0.00000000 </v>
   <v>      -0.04761905       0.06666667       0.00000000 </v>
   <v>       0.00000000       0.13333333       0.00000000 </v>
   <v>       0.04761905       0.13333333       0.00000000 </v>
   <v>       0.09523810       0.13333333       0.00000000 </v>
   <v>       0.14285714       0.13333333       0.00000000 </v>
   <v>       0.19047619       0.13333333       0.00000000 </v>
   <v>       0.23809524       0.13333333       0.00000000 </v>
   <v>       0.28571429       0.13333333       0.00000000 </v>
   <v>       0.33333333       0.13333333       0.00000000 </v>
   <v>       0.38095238       0.13333333       0.00000000 </v>
   <v>       0.42857143       0.13333333       0.00000000 </v>
   <v>       0.47619048       0.13333333       0.00000000 </v>
   <v>      -0.47619048       0.13333333       0.00000000 </v>
   <v>      -0.42857143       0.13333333       0.00000000 </v>
   <v>      -0.38095238       0.13333333       0.00000000 </v>
   <v>      -0.33333333       0.13333333       0.00000000 </v>
   <v>      -0.28571429       0.13333333       0.00000000 </v>
   <v>      -0.23809524       0.13333333       0.00000000 </v>
   <v>      -0.19047619       0.13333333       0.00000000 </v>
   <v>      -0.14285714       0.13333333       0.00000000 </v>
   <v>      -0.09523810       0.13333333       0.00000000 </v>
   <v>      -0.04761905       0.13333333       0.00000000 </v>
   <v>       0.00000000       0.20000000       0.00000000 </v>
   <v>       0.04761905       0.20000000       0.00000000 </v>
   <v>       0.09523810       0.20000000       0.00000000 </v>
   <v>       0.14285714       0.20000000       0.00000000 </v>
   <v>       0.19047619       0.20000000       0.00000000 </v>
   <v>       0.23809524       0.20000000       0.00000000 </v>
   <v>       0.28571429       0.20000000       0.00000000 </v>
   <v>       0.33333333       0.20000000       0.00000000 </v>
   <v>       0.38095238       0.20000000       0.00000000 </v>
   <v>       0.42857143       0.20000000       0.00000000 </v>
   <v>       0.47619048       0.20000000       0.00000000 </v>
   <v>      -0.47619048       0.20000000       0.00000000 </v>
   <v>      -0.42857143       0.20000000       0.00000000 </v>
   <v>      -0.38095238       0.20000000       0.00000000 </v>
   <v>      -0.33333333       0.20000000       0.00000000 </v>
   <v>      -0.28571429       0.20000000       0.00000000 </v>
   <v>      -0.23809524       0.20000000       0.00000000 </v>
   <v>      -0.19047619       0.20000000       0.00000000 </v>
   <v>      -0.14285714       0.20000000       0.00000000 </v>
   <v>      -0.09523810       0.20000000       0.00000000 </v>
   <v>      -0.04761905       0.20000000       0.00000000 </v>
   <v>       0.00000000       0.26666667       0.00000000 </v>
   <v>       0.04761905       0.26666667       0.00000000 </v>
   <v>       0.09523810       0.26666667       0.00000000 </v>
   <v>       0.14285714       0.26666667       0.00000000 </v>
   <v>       0.19047619       0.26666667       0.00000000 </v>
   <v>       0.23809524       0.26666667       0.00000000 </v>
   <v>       0.28571429       0.26666667       0.00000000 </v>
   <v>       0.33333333       0.26666667       0.00000000 </v>
   <v>       0.38095238       0.26666667       0.00000000 </v>
   <v>       0.42857143       0.26666667       0.00000000 </v>
   <v>       0.47619048       0.26666667       0.00000000 </v>
   <v>      -0.47619048       0.26666667       0.00000000 </v>
   <v>      -0.42857143       0.26666667       0.00000000 </v>
   <v>      -0.38095238       0.26666667       0.00000000 </v>
   <v>      -0.33333333       0.26666667       0.00000000 </v>
   <v>      -0.28571429       0.26666667       0.00000000 </v>
   <v>      -0.23809524       0.26666667       0.00000000 </v>
   <v>      -0.19047619       0.26666667       0.00000000 </v>
   <v>      -0.14285714       0.26666667       0.00000000 </v>
   <v>      -0.09523810       0.26666667       0.00000000 </v>
   <v>      -0.04761905       0.26666667       0.00000000 </v>
   <v>       0.00000000       0.33333333       0.00000000 </v>
   <v>       0.04761905       0.33333333       0.00000000 </v>
   <v>       0.09523810       0.33333333       0.00000000 </v>
   <v>       0.14285714       0.33333333       0.00000000 </v>
   <v>       0.19047619       0.33333333       0.00000000 </v>
   <v>       0.23809524       0.33333333       0.00000000 </v>
   <v>       0.28571429       0.33333333       0.00000000 </v>
   <v>       0.33333333       0.33333333       0.00000000 </v>
   <v>       0.38095238       0.33333333       0.00000000 </v>
   <v>       0.42857143       0.33333333       0.00000000 </v>
   <v>       0.47619048       0.33333333       0.00000000 </v>
   <v>      -0.47619048       0.33333333       0.00000000 </v>
   <v>      -0.42857143       0.33333333       0.00000000 </v>
   <v>      -0.38095238       0.33333333       0.00000000 </v>
   <v>      -0.33333333       0.33333333       0.00000000 </v>
   <v>      -0.28571429       0.33333333       0.00000000 </v>
   <v>      -0.23809524       0.33333333       0.00000000 </v>
   <v>      -0.19047619       0.33333333       0.00000000 </v>
   <v>      -0.14285714       0.33333333       0.00000000 </v>
   <v>      -0.09523810       0.33333333       0.00000000 </v>
   <v>      -0.04761905       0.33333333       0.00000000 </v>
   <v>       0.00000000       0.40000000       0.00000000 </v>
   <v>       0.04761905       0.40000000       0.00000000 </v>
   <v>       0.09523810       0.40000000       0.00000000 </v>
   <v>       0.14285714       0.40000000       0.00000000 </v>
   <v>       0.19047619       0.40000000       0.00000000 </v>
   <v>       0.23809524       0.40000000       0.00000000 </v>
   <v>       0.28571429       0.40000000       0.00000000 </v>
   <v>       0.33333333       0.40000000       0.00000000 </v>
   <v>       0.38095238       0.40000000       0.00000000 </v>
   <v>       0.42857143       0.40000000       0.00000000 </v>
   <v>       0.47619048       0.40000000       0.00000000 </v>
   <v>      -0.47619048       0.40000000       0.00000000 </v>
   <v>      -0.42857143       0.40000000       0.00000000 </v>
   <v>      -0.38095238       0.40000000       0.00000000 </v>
   <v>      -0.33333333       0.40000000       0.00000000 </v>
   <v>      -0.28571429       0.40000000       0.00000000 </v>
   <v>      -0.23809524       0.40000000       0.00000000 </v>
   <v>      -0.19047619       0.40000000       0.00000000 </v>
   <v>      -0.14285714       0.40000000       0.00000000 </v>
   <v>      -0.09523810       0.40000000       0.00000000 </v>
   <v>      -0.04761905       0.40000000       0.00000000 </v>
   <v>       0.00000000       0.46666667       0.00000000 </v>
   <v>       0.04761905       0.46666667       0.00000000 </v>
   <v>       0.09523810       0.46666667       0.00000000 </v>
   <v>       0.14285714       0.46666667       0.00000000 </v>
   <v>       0.19047619       0.46666667       0.00000000 </v>
   <v>       0.23809524       0.46666667       0.00000000 </v>
   <v>       0.28571429       0.46666667       0.00000000 </v>
   <v>       0.33333333       0.46666667       0.00000000 </v>
   <v>       0.38095238       0.46666667       0.00000000 </v>
   <v>       0.42857143       0.46666667       0.00000000 </v>
   <v>       0.47619048       0.46666667       0.00000000 </v>
   <v>      -0.47619048       0.46666667       0.00000000 </v>
   <v>      -0.42857143       0.46666667       0.00000000 </v>
   <v>      -0.38095238       0.46666667       0.00000000 </v>
   <v>      -0.33333333       0.46666667       0.00000000 </v>
   <v>      -0.28571429       0.46666667       0.00000000 </v>
   <v>      -0.23809524       0.46666667       0.00000000 </v>
   <v>      -0.19047619       0.46666667       0.00000000 </v>
   <v>      -0.14285714       0.46666667       0.00000000 </v>
   <v>      -0.09523810       0.46666667       0.00000000 </v>
   <v>      -0.04761905       0.46666667       0.00000000 </v>
  </varray>
  <varray name="weights" >
   <v>       0.00317460 </v>
   <v>       0.00634921 </v>
   <v>       0.00634921 </v>
   <v>       0.00634921 </v>
   <v>       0.00634921 </v>
   <v>       0.00634921 </v>
   <v>       0.00634921 </v>
   <v>       0.00634921 </v>
   <v>       0.00634921 </v>
   <v>       0.00634921 </v>
   <v>       0.00634921 </v>
   <v>       0.00634921 </v>
   <v>       0.00634921 </v>
   <v>       0.00634921 </v>
   <v>       0.00634921 </v>
   <v>       0.00634921 </v>
   <v>       0.00634921 </v>
   <v>       0.00634921 </v>
   <v>       0.00634921 </v>
   <v>       0.00634921 </v>
   <v>       0.00634921 </v>
   <v>       0.00634921 </v>
   <v>       0.00634921 </v>
   <v>       0.00634921 </v>
   <v>       0.00634921 </v>
   <v>       0.00634921 </v>
   <v>       0.00634921 </v>
   <v>       0.00634921 </v>
   <v>       0.00634921 </v>
   <v>       0.00634921 </v>
   <v>       0.00634921 </v>
   <v>       0.00634921 </v>
   <v>       0.00634921 </v>
   <v>       0.00634921 </v>
   <v>       0.00634921 </v>
   <v>       0.00634921 </v>
   <v>       0.00634921 </v>
   <v>       0.00634921 </v>
   <v>       0.00634921 </v>
   <v>       0.00634921 </v>
   <v>       0.00634921 </v>
   <v>       0.00634921 </v>
   <v>       0.00634921 </v>
   <v>       0.00634921 </v>
   <v>       0.00634921 </v>
   <v>       0.00634921 </v>
   <v>       0.00634921 </v>
   <v>       0.00634921 </v>
   <v>       0.00634921 </v>
   <v>       0.00634921 </v>
   <v>       0.00634921 </v>
   <v>       0.00634921 </v>
   <v>       0.00634921 </v>
   <v>       0.00634921 </v>
   <v>       0.00634921 </v>
   <v>       0.00634921 </v>
   <v>       0.00634921 </v>
   <v>       0.00634921 </v>
   <v>       0.00634921 </v>
   <v>       0.00634921 </v>
   <v>       0.00634921 </v>
   <v>       0.00634921 </v>
   <v>       0.00634921 </v>
   <v>       0.00634921 </v>
   <v>       0.00634921 </v>
   <v>       0.00634921 </v>
   <v>       0.00634921 </v>
   <v>       0.00634921 </v>
   <v>       0.00634921 </v>
   <v>       0.00634921 </v>
   <v>       0.00634921 </v>
   <v>       0.00634921 </v>
   <v>       0.00634921 </v>
   <v>       0.00634921 </v>
   <v>       0.00634921 </v>
   <v>       0.00634921 </v>
   <v>       0.00634921 </v>
   <v>       0.00634921 </v>
   <v>       0.00634921 </v>
   <v>       0.00634921 </v>
   <v>       0.00634921 </v>
   <v>       0.00634921 </v>
   <v>       0.00634921 </v>
   <v>       0.00634921 </v>
   <v>       0.00634921 </v>
   <v>       0.00634921 </v>
   <v>       0.00634921 </v>
   <v>       0.00634921 </v>
   <v>       0.00634921 </v>
   <v>       0.00634921 </v>
   <v>       0.00634921 </v>
   <v>       0.00634921 </v>
   <v>       0.00634921 </v>
   <v>       0.00634921 </v>
   <v>       0.00634921 </v>
   <v>       0.00634921 </v>
   <v>       0.00634921 </v>
   <v>       0.00634921 </v>
   <v>       0.00634921 </v>
   <v>       0.00634921 </v>
   <v>       0.00634921 </v>
   <v>       0.00634921 </v>
   <v>       0.00634921 </v>
   <v>       0.00634921 </v>
   <v>       0.00634921 </v>
   <v>       0.00634921 </v>
   <v>       0.00634921 </v>
   <v>       0.00634921 </v>
   <v>       0.00634921 </v>
   <v>       0.00634921 </v>
   <v>       0.00634921 </v>
   <v>       0.00634921 </v>
   <v>       0.00634921 </v>
   <v>       0.00634921 </v>
   <v>       0.00634921 </v>
   <v>       0.00634921 </v>
   <v>       0.00634921 </v>
   <v>       0.00634921 </v>
   <v>       0.00634921 </v>
   <v>       0.00634921 </v>
   <v>       0.00634921 </v>
   <v>       0.00634921 </v>
   <v>       0.00634921 </v>
   <v>       0.00634921 </v>
   <v>       0.00634921 </v>
   <v>       0.00634921 </v>
   <v>       0.00634921 </v>
   <v>       0.00634921 </v>
   <v>       0.00634921 </v>
   <v>       0.00634921 </v>
   <v>       0.00634921 </v>
   <v>       0.00634921 </v>
   <v>       0.00634921 </v>
   <v>       0.00634921 </v>
   <v>       0.00634921 </v>
   <v>       0.00634921 </v>
   <v>       0.00634921 </v>
   <v>       0.00634921 </v>
   <v>       0.00634921 </v>
   <v>       0.00634921 </v>
   <v>       0.00634921 </v>
   <v>       0.00634921 </v>
   <v>       0.00634921 </v>
   <v>       0.00634921 </v>
   <v>       0.00634921 </v>
   <v>       0.00634921 </v>
   <v>       0.00634921 </v>
   <v>       0.00634921 </v>
   <v>       0.00634921 </v>
   <v>       0.00634921 </v>
   <v>       0.00634921 </v>
   <v>       0.00634921 </v>
   <v>       0.00634921 </v>
   <v>       0.00634921 </v>
   <v>       0.00634921 </v>
   <v>       0.00634921 </v>
   <v>       0.00634921 </v>
   <v>       0.00634921 </v>
  </varray>
 </kpoints>
 <parameters>
  <separator name="general" >
   <i type="string" name="SYSTEM">unknown system</i>
   <i type="logical" name="LCOMPAT"> F  </i>
  </separator>
  <separator name="electronic" >
   <i type="string" name="PREC">a</i>
   <i name="ENMAX">    520.00000000</i>
   <i name="ENAUG">    342.92400000</i>
   <i name="EDIFF">      0.00001000</i>
   <i type="int" name="IALGO">    38</i>
   <i type="int" name="IWAVPR">    11</i>
   <i type="int" name="NBANDS">    16</i>
   <i name="NELECT">     20.00000000</i>
   <i type="int" name="TURBO">     0</i>
   <i type="int" name="IRESTART">     0</i>
   <i type="int" name="NREBOOT">     0</i>
   <i type="int" name="NMIN">     0</i>
   <i name="EREF">      0.00000000</i>
   <separator name="electronic smearing" >
    <i type="int" name="ISMEAR">     0</i>
    <i name="SIGMA">      0.02000000</i>
    <i name="KSPACING">      0.50000000</i>
    <i type="logical" name="KGAMMA"> T  </i>
   </separator>
   <separator name="electronic projectors" >
    <i type="logical" name="LREAL"> F  </i>
    <v name="ROPT">      0.00000000</v>
    <i type="int" name="LMAXPAW">  -100</i>
    <i type="int" name="LMAXMIX">     2</i>
    <i type="logical" name="NLSPLINE"> F  </i>
   </separator>
   <separator name="electronic startup" >
    <i type="int" name="ISTART">     0</i>
    <i type="int" name="ICHARG">     2</i>
    <i type="int" name="INIWAV">     1</i>
   </separator>
   <separator name="electronic spin" >
    <i type="int" name="ISPIN">     1</i>
    <i type="logical" name="LNONCOLLINEAR"> F  </i>
    <v name="MAGMOM">      1.00000000      1.00000000      1.00000000      1.00000000</v>
    <i name="NUPDOWN">     -1.00000000</i>
    <i type="logical" name="LSORBIT"> F  </i>
    <v name="SAXIS">      0.00000000      0.00000000      1.00000000</v>
    <i type="logical" name="LSPIRAL"> F  </i>
    <v name="QSPIRAL">      0.00000000      0.00000000      0.00000000</v>
    <i type="logical" name="LZEROZ"> F  </i>
   </separator>
   <separator name="electronic exchange-correlation" >
    <i type="logical" name="LASPH"> F  </i>
    <i type="logical" name="LMETAGGA"> F  </i>
   </separator>
   <separator name="electronic convergence" >
    <i type="int" name="NELM">   250</i>
    <i type="int" name="NELMDL">    -5</i>
    <i type="int" name="NELMIN">     6</i>
    <i name="ENINI">    520.00000000</i>
    <separator name="electronic convergence detail" >
     <i type="logical" name="LDIAG"> T  </i>
     <i type="logical" name="LSUBROT"> F  </i>
     <i name="WEIMIN">      0.00100000</i>
     <i name="EBREAK">      0.00000016</i>
     <i name="DEPER">      0.30000000</i>
     <i type="int" name="NRMM">     4</i>
     <i name="TIME">      0.40000000</i>
    </separator>
   </separator>
   <separator name="electronic mixer" >
    <i name="AMIX">      0.40000000</i>
    <i name="BMIX">      1.00000000</i>
    <i name="AMIN">      0.10000000</i>
    <i name="AMIX_MAG">      1.60000000</i>
    <i name="BMIX_MAG">      1.00000000</i>
    <separator name="electronic mixer details" >
     <i type="int" name="IMIX">     4</i>
     <i type="logical" name="MIXFIRST"> F  </i>
     <i type="int" name="MAXMIX">   -45</i>
     <i name="WC">    100.00000000</i>
     <i type="int" name="INIMIX">     1</i>
     <i type="int" name="MIXPRE">     1</i>
     <i type="int" name="MREMOVE">     5</i>
    </separator>
   </separator>
   <separator name="electronic dipolcorrection" >
    <i type="logical" name="LDIPOL"> F  </i>
    <i type="logical" name="LMONO"> F  </i>
    <i type="int" name="IDIPOL">     0</i>
    <i name="EPSILON">      1.00000000</i>
    <v name="DIPOL">   -100.00000000   -100.00000000   -100.00000000</v>
    <i name="EFIELD">      0.00000000</i>
   </separator>
  </separator>
  <separator name="grids" >
   <i type="int" name="NGX">    28</i>
   <i type="int" name="NGY">    36</i>
   <i type="int" name="NGZ">   150</i>
   <i type="int" name="NGXF">    56</i>
   <i type="int" name="NGYF">    72</i>
   <i type="int" name="NGZF">   300</i>
   <i type="logical" name="ADDGRID"> F  </i>
  </separator>
  <separator name="ionic" >
   <i type="int" name="NSW">   200</i>
   <i type="int" name="IBRION">     2</i>
   <i type="int" name="ISIF">     2</i>
   <i name="PSTRESS">      0.00000000</i>
   <i name="EDIFFG">     -0.01000000</i>
   <i type="int" name="NFREE">     1</i>
   <i name="POTIM">      0.30000000</i>
   <i name="SMASS">     -3.00000000</i>
   <i name="SCALEE">      1.00000000</i>
  </separator>
  <separator name="ionic md" >
   <i name="TEBEG">      0.00010000</i>
   <i name="TEEND">      0.00010000</i>
   <i type="int" name="NBLOCK">     1</i>
   <i type="int" name="KBLOCK">   200</i>
   <i type="int" name="NPACO">   256</i>
   <i name="APACO">     16.00000000</i>
  </separator>
  <separator name="symmetry" >
   <i type="int" name="ISYM">     2</i>
   <i name="SYMPREC">      0.00001000</i>
  </separator>
  <separator name="dos" >
   <i type="logical" name="LORBIT"> F  </i>
   <v name="RWIGS">     -1.00000000</v>
   <i type="int" name="NEDOS">   301</i>
   <i name="EMIN">     10.00000000</i>
   <i name="EMAX">    -10.00000000</i>
   <i name="EFERMI">      0.00000000</i>
  </separator>
  <separator name="writing" >
   <i type="int" name="NWRITE">     2</i>
   <i type="logical" name="LWAVE"> F  </i>
   <i type="logical" name="LCHARG"> F  </i>
   <i type="logical" name="LPARD"> F  </i>
   <i type="logical" name="LVTOT"> F  </i>
   <i type="logical" name="LVHAR"> F  </i>
   <i type="logical" name="LELF"> F  </i>
   <i type="logical" name="LOPTICS"> F  </i>
   <v name="STM">      0.00000000      0.00000000      0.00000000      0.00000000      0.00000000      0.00000000      0.00000000</v>
  </separator>
  <separator name="performance" >
   <i type="int" name="NPAR">     4</i>
   <i type="int" name="NSIM">     4</i>
   <i type="int" name="NBLK">    -1</i>
   <i type="logical" name="LPLANE"> T  </i>
   <i type="logical" name="LSCALAPACK"> T  </i>
   <i type="logical" name="LSCAAWARE"> F  </i>
   <i type="logical" name="LSCALU"> F  </i>
   <i type="logical" name="LASYNC"> F  </i>
   <i type="logical" name="LORBITALREAL"> F  </i>
  </separator>
  <separator name="miscellaneous" >
   <i type="int" name="IDIOT">     3</i>
   <i type="logical" name="LMUSIC"> F  </i>
   <v name="POMASS">     30.97400000</v>
   <v name="DARWINR">      0.00000000</v>
   <v name="DARWINV">      1.00000000</v>
   <i type="logical" name="LCORR"> T  </i>
  </separator>
  <i type="logical" name="GGA_COMPAT"> T  </i>
  <i type="logical" name="LBERRY"> F  </i>
  <i type="int" name="ICORELEVEL">     0</i>
  <i type="logical" name="LDAU"> F  </i>
  <i type="int" name="I_CONSTRAINED_M">     0</i>
  <separator name="electronic exchange-correlation" >
   <i type="string" name="GGA">--</i>
   <i type="int" name="VOSKOWN">     0</i>
   <i type="logical" name="LHFCALC"> F  </i>
   <i type="string" name="PRECFOCK"></i>
   <i type="logical" name="LSYMGRAD"> F  </i>
   <i type="logical" name="LHFONE"> F  </i>
   <i type="logical" name="LRHFCALC"> F  </i>
   <i type="logical" name="LTHOMAS"> F  </i>
   <i type="logical" name="LMODELHF"> F  </i>
   <i name="ENCUT4O">     -1.00000000</i>
   <i type="int" name="EXXOEP">     0</i>
   <i type="int" name="FOURORBIT">     0</i>
   <i name="AEXX">      0.00000000</i>
   <i name="HFALPHA">      0.00000000</i>
   <i name="MCALPHA">      0.00000000</i>
   <i name="ALDAX">      1.00000000</i>
   <i name="AGGAX">      1.00000000</i>
   <i name="ALDAC">      1.00000000</i>
   <i name="AGGAC">      1.00000000</i>
   <i type="int" name="NKREDX">     1</i>
   <i type="int" name="NKREDY">     1</i>
   <i type="int" name="NKREDZ">     1</i>
   <i type="logical" name="SHIFTRED"> F  </i>
   <i type="logical" name="ODDONLY"> F  </i>
   <i type="logical" name="EVENONLY"> F  </i>
   <i type="int" name="LMAXFOCK">     0</i>
   <i type="int" name="NMAXFOCKAE">     0</i>
   <i type="logical" name="LFOCKAEDFT"> F  </i>
   <i name="HFSCREEN">      0.00000000</i>
   <i name="HFSCREENC">      0.00000000</i>
   <i type="int" name="NBANDSGWLOW">     0</i>
  </separator>
  <separator name="vdW DFT" >
   <i type="logical" name="LUSE_VDW"> F  </i>
   <i name="Zab_VDW">     -0.84910000</i>
   <i name="PARAM1">      0.12340000</i>
   <i name="PARAM2">      1.00000000</i>
   <i name="PARAM3">      0.00000000</i>
  </separator>
  <separator name="model GW" >
   <i type="int" name="MODEL_GW">     0</i>
   <i name="MODEL_EPS0">     46.13156851</i>
   <i name="MODEL_ALPHA">      1.00000000</i>
  </separator>
  <separator name="linear response parameters" >
   <i type="logical" name="LEPSILON"> F  </i>
   <i type="logical" name="LRPA"> F  </i>
   <i type="logical" name="LNABLA"> F  </i>
   <i type="logical" name="LVEL"> F  </i>
   <i type="int" name="KINTER">     0</i>
   <i name="CSHIFT">      0.10000000</i>
   <i name="OMEGAMAX">     -1.00000000</i>
   <i name="DEG_THRESHOLD">      0.00200000</i>
  </separator>
  <separator name="orbital magnetization" >
   <i type="logical" name="NUCIND"> F  </i>
   <v name="MAGPOS">      0.00000000      0.00000000      0.00000000</v>
   <i type="logical" name="LNICSALL"> T  </i>
   <i type="logical" name="ORBITALMAG"> F  </i>
   <i type="logical" name="LMAGBLOCH"> F  </i>
   <i type="logical" name="LCHIMAG"> F  </i>
   <i type="logical" name="LGAUGE"> T  </i>
   <i type="int" name="MAGATOM">     0</i>
   <v name="MAGDIPOL">      0.00000000      0.00000000      0.00000000</v>
   <v name="AVECCONST">      0.00000000      0.00000000      0.00000000</v>
  </separator>
  <separator name="response functions" >
   <i type="logical" name="LADDER"> F  </i>
   <i type="logical" name="LFXC"> F  </i>
   <i type="logical" name="LHARTREE"> T  </i>
   <i type="int" name="IBSE">     0</i>
   <v type="int" name="KPOINT">    -1     0     0     0</v>
   <i type="logical" name="LTCTE"> F  </i>
   <i type="logical" name="LTETE"> F  </i>
   <i type="logical" name="LTRIPLET"> F  </i>
   <i type="logical" name="LFXCEPS"> F  </i>
   <i type="logical" name="LFXHEG"> F  </i>
   <i type="int" name="NATURALO">     0</i>
   <i type="logical" name="L2ORDER"> F  </i>
   <i type="logical" name="LUSEW"> F  </i>
   <i name="ENCUTGW">     -2.00000000</i>
   <i name="ENCUTGWSOFT">     -2.00000000</i>
   <i name="ENCUTLF">     -1.00000000</i>
   <i type="int" name="LMAXMP2">    -1</i>
   <i name="SCISSOR">      0.00000000</i>
   <i type="int" name="NOMEGA">     0</i>
   <i type="int" name="NOMEGAR">     0</i>
   <i type="int" name="NBANDSGW">    -1</i>
   <i type="int" name="NBANDSO">    -1</i>
   <i type="int" name="NBANDSV">    -1</i>
   <i type="int" name="NELM">   250</i>
   <i type="int" name="NELMHF">     1</i>
   <i type="int" name="DIM">     3</i>
   <i type="int" name="ANTIRES">     0</i>
   <i name="OMEGAMAX">    -30.00000000</i>
   <i name="OMEGAMIN">    -30.00000000</i>
   <i name="OMEGATL">   -200.00000000</i>
   <i type="int" name="OMEGAGRID">     0</i>
   <i name="CSHIFT">     -0.10000000</i>
   <i type="logical" name="SELFENERGY"> F  </i>
   <i type="logical" name="LSPECTRAL"> F  </i>
   <i type="logical" name="LSPECTRALGW"> F  </i>
   <i type="logical" name="LSINGLES"> F  </i>
   <i type="logical" name="LFERMIGW"> F  </i>
   <i type="logical" name="ODDONLYGW"> F  </i>
   <i type="logical" name="EVENONLYGW"> F  </i>
   <i type="int" name="NKREDLFX">     1</i>
   <i type="int" name="NKREDLFY">     1</i>
   <i type="int" name="NKREDLFZ">     1</i>
   <i type="int" name="MAXMEM">  1800</i>
   <i type="int" name="TELESCOPE">     0</i>
   <i type="int" name="TAUPAR">     1</i>
   <i type="int" name="OMEGAPAR">    -1</i>
   <i name="LAMBDA">      1.00000000</i>
  </separator>
  <separator name="External order field" >
   <i name="OFIELD_KAPPA">      0.00000000</i>
   <v name="OFIELD_K">      0.00000000      0.00000000      0.00000000</v>
   <i name="OFIELD_Q6_NEAR">      0.00000000</i>
   <i name="OFIELD_Q6_FAR">      0.00000000</i>
   <i name="OFIELD_A">      0.00000000</i>
  </separator>
 </parameters>
 <atominfo>
  <atoms>       4 </atoms>
  <types>       1 </types>
  <array name="atoms" >
   <dimension dim="1">ion</dimension>
   <field type="string">element</field>
   <field type="int">atomtype</field>
   <set>
    <rc><c>P </c><c>   1</c></rc>
    <rc><c>P </c><c>   1</c></rc>
    <rc><c>P </c><c>   1</c></rc>
    <rc><c>P </c><c>   1</c></rc>
   </set>
  </array>
  <array name="atomtypes" >
   <dimension dim="1">type</dimension>
   <field type="int">atomspertype</field>
   <field type="string">element</field>
   <field>mass</field>
   <field>valence</field>
   <field type="string">pseudopotential</field>
   <set>
    <rc><c>   4</c><c>P </c><c>     30.97400000</c><c>      5.00000000</c><c>  PAW_PBE P 06Sep2000                   </c></rc>
   </set>
  </array>
 </atominfo>
 <structure name="initialpos" >
  <crystal>
   <varray name="basis" >
    <v>       3.30954500       0.00000000       0.00000000 </v>
    <v>       0.00000000       4.64065600      -0.00005300 </v>
    <v>       0.00000000       0.00000000      20.02439000 </v>
   </varray>
   <i name="volume">    307.54379007 </i>
   <varray name="rec_basis" >
    <v>       0.30215634       0.00000000       0.00000000 </v>
    <v>       0.00000000       0.21548678       0.00000000 </v>
    <v>       0.00000000       0.00000057       0.04993910 </v>
   </varray>
  </crystal>
  <varray name="positions" >
   <v>       0.50000000       0.91077300       0.55252100 </v>
   <v>       0.50000000       0.08922700       0.44747900 </v>
   <v>       0.00000000       0.41076900       0.44747900 </v>
   <v>       0.00000000       0.58923100       0.55252100 </v>
  </varray>
 </structure>
 <calculation>
  <scstep>
   <time name="dav">    1.49    1.49</time>
   <time name="total">    1.51    1.52</time>
   <energy>
    <i name="alphaZ">      5.21604107 </i>
    <i name="ewald">   1845.48902437 </i>
    <i name="hartreedc">  -2439.36800107 </i>
    <i name="XCdc">     12.96105296 </i>
    <i name="pawpsdc">    559.04011960 </i>
    <i name="pawaedc">   -526.39432044 </i>
    <i name="eentropy">     -0.00069191 </i>
    <i name="bandstr">    -29.22695635 </i>
    <i name="atom">    704.16778566 </i>
    <i name="e_fr_energy">    131.88405390 </i>
    <i name="e_wo_entrp">    131.88474581 </i>
    <i name="e_0_energy">    131.88439985 </i>
   </energy>
  </scstep>
  <scstep>
   <time name="dav">    2.01    2.01</time>
   <time name="total">    2.01    2.01</time>
   <energy>
    <i name="e_fr_energy">     -6.54096449 </i>
    <i name="e_wo_entrp">     -6.54096449 </i>
    <i name="e_0_energy">     -6.54096449 </i>
   </energy>
  </scstep>
  <scstep>
   <time name="dav">    1.83    1.83</time>
   <time name="total">    1.83    1.83</time>
   <energy>
    <i name="e_fr_energy">    -21.35664890 </i>
    <i name="e_wo_entrp">    -21.35664890 </i>
    <i name="e_0_energy">    -21.35664890 </i>
   </energy>
  </scstep>
  <scstep>
   <time name="dav">    1.86    1.86</time>
   <time name="total">    1.86    1.86</time>
   <energy>
    <i name="e_fr_energy">    -21.65231931 </i>
    <i name="e_wo_entrp">    -21.65231931 </i>
    <i name="e_0_energy">    -21.65231931 </i>
   </energy>
  </scstep>
  <scstep>
   <time name="dav">    1.98    1.98</time>
   <time name="total">    2.08    2.08</time>
   <energy>
    <i name="e_fr_energy">    -21.66177457 </i>
    <i name="e_wo_entrp">    -21.66177457 </i>
    <i name="e_0_energy">    -21.66177457 </i>
   </energy>
  </scstep>
  <scstep>
   <time name="dav">    1.79    1.79</time>
   <time name="total">    1.91    1.91</time>
   <energy>
    <i name="e_fr_energy">    -21.52273169 </i>
    <i name="e_wo_entrp">    -21.52273169 </i>
    <i name="e_0_energy">    -21.52273169 </i>
   </energy>
  </scstep>
  <scstep>
   <time name="dav">    1.73    1.73</time>
   <time name="total">    1.84    1.84</time>
   <energy>
    <i name="e_fr_energy">    -21.45621715 </i>
    <i name="e_wo_entrp">    -21.45621715 </i>
    <i name="e_0_energy">    -21.45621715 </i>
   </energy>
  </scstep>
  <scstep>
   <time name="dav">    1.83    1.83</time>
   <time name="total">    1.94    1.94</time>
   <energy>
    <i name="e_fr_energy">    -21.45567611 </i>
    <i name="e_wo_entrp">    -21.45567611 </i>
    <i name="e_0_energy">    -21.45567611 </i>
   </energy>
  </scstep>
  <scstep>
   <time name="dav">    2.11    2.11</time>
   <time name="total">    2.22    2.23</time>
   <energy>
    <i name="e_fr_energy">    -21.45553629 </i>
    <i name="e_wo_entrp">    -21.45553629 </i>
    <i name="e_0_energy">    -21.45553629 </i>
   </energy>
  </scstep>
  <scstep>
   <time name="dav">    1.82    1.82</time>
   <time name="total">    1.93    1.93</time>
   <energy>
    <i name="e_fr_energy">    -21.45538187 </i>
    <i name="e_wo_entrp">    -21.45538187 </i>
    <i name="e_0_energy">    -21.45538187 </i>
   </energy>
  </scstep>
  <scstep>
   <time name="dav">    1.82    1.82</time>
   <time name="total">    1.93    1.93</time>
   <energy>
    <i name="e_fr_energy">    -21.45529563 </i>
    <i name="e_wo_entrp">    -21.45529563 </i>
    <i name="e_0_energy">    -21.45529563 </i>
   </energy>
  </scstep>
  <scstep>
   <time name="dav">    1.63    1.63</time>
   <time name="total">    1.74    1.74</time>
   <energy>
    <i name="e_fr_energy">    -21.45567597 </i>
    <i name="e_wo_entrp">    -21.45567597 </i>
    <i name="e_0_energy">    -21.45567597 </i>
   </energy>
  </scstep>
  <scstep>
   <time name="dav">    1.62    1.62</time>
   <time name="total">    1.73    1.73</time>
   <energy>
    <i name="e_fr_energy">    -21.45577239 </i>
    <i name="e_wo_entrp">    -21.45577239 </i>
    <i name="e_0_energy">    -21.45577239 </i>
   </energy>
  </scstep>
  <scstep>
   <time name="dav">    1.51    1.51</time>
   <time name="total">    1.62    1.62</time>
   <energy>
    <i name="e_fr_energy">    -21.45590328 </i>
    <i name="e_wo_entrp">    -21.45590328 </i>
    <i name="e_0_energy">    -21.45590328 </i>
   </energy>
  </scstep>
  <scstep>
   <time name="dav">    1.55    1.55</time>
   <time name="total">    1.66    1.66</time>
   <energy>
    <i name="e_fr_energy">    -21.45593552 </i>
    <i name="e_wo_entrp">    -21.45593552 </i>
    <i name="e_0_energy">    -21.45593552 </i>
   </energy>
  </scstep>
  <scstep>
   <time name="dav">    1.47    1.47</time>
   <time name="total">    1.58    1.58</time>
   <energy>
    <i name="e_fr_energy">    -21.45596633 </i>
    <i name="e_wo_entrp">    -21.45596633 </i>
    <i name="e_0_energy">    -21.45596633 </i>
   </energy>
  </scstep>
  <scstep>
   <time name="dav">    1.47    1.47</time>
   <time name="total">    1.49    1.49</time>
   <energy>
    <i name="alphaZ">      5.21604107 </i>
    <i name="ewald">   1845.48902437 </i>
    <i name="hartreedc">  -2454.42656135 </i>
    <i name="XCdc">     14.01701492 </i>
    <i name="pawpsdc">   2070.28014510 </i>
    <i name="pawaedc">  -2037.96170170 </i>
    <i name="eentropy">     -0.00000000 </i>
    <i name="bandstr">   -168.23771659 </i>
    <i name="atom">    704.16778566 </i>
    <i name="e_fr_energy">    -21.45596852 </i>
    <i name="e_wo_entrp">    -21.45596852 </i>
    <i name="e_0_energy">    -21.45596852 </i>
   </energy>
  </scstep>
  <structure>
   <crystal>
    <varray name="basis" >
     <v>       3.30954500       0.00000000       0.00000000 </v>
     <v>       0.00000000       4.64065600      -0.00005300 </v>
     <v>       0.00000000       0.00000000      20.02439000 </v>
    </varray>
    <i name="volume">    307.54379007 </i>
    <varray name="rec_basis" >
     <v>       0.30215634       0.00000000       0.00000000 </v>
     <v>       0.00000000       0.21548678       0.00000000 </v>
     <v>       0.00000000       0.00000057       0.04993910 </v>
    </varray>
   </crystal>
   <varray name="positions" >
    <v>       0.50000000       0.91077300       0.55252100 </v>
    <v>       0.50000000       0.08922700       0.44747900 </v>
    <v>       0.00000000       0.41076900       0.44747900 </v>
    <v>       0.00000000       0.58923100       0.55252100 </v>
   </varray>
  </structure>
  <varray name="forces" >
   <v>       0.00000035      -0.06420786      -0.01751257 </v>
   <v>      -0.00000035       0.06420786       0.01751257 </v>
   <v>      -0.00000034      -0.06423826       0.01751713 </v>
   <v>       0.00000034       0.06423826      -0.01751713 </v>
  </varray>
  <varray name="stress" >
   <v>      -2.40228642       0.00000207       0.00000109 </v>
   <v>       0.00000206      -1.81331979       0.00035565 </v>
   <v>       0.00000107       0.00035571      -0.44817447 </v>
  </varray>
  <energy>
   <i name="e_fr_energy">    -21.45596852 </i>
   <i name="e_wo_entrp">    -21.45596852 </i>
   <i name="e_0_energy">     -0.00000000 </i>
  </energy>
  <time name="totalsc">   31.66   31.70</time>
 </calculation>
 <calculation>
  <scstep>
   <time name="dav">    1.60    1.60</time>
   <time name="total">    1.71    1.72</time>
   <energy>
    <i name="alphaZ">      5.21604107 </i>
    <i name="ewald">   1846.22999365 </i>
    <i name="hartreedc">  -2455.06272403 </i>
    <i name="XCdc">     14.02874658 </i>
    <i name="pawpsdc">   2069.97102110 </i>
    <i name="pawaedc">  -2037.65261673 </i>
    <i name="eentropy">     -0.00000000 </i>
    <i name="bandstr">   -168.35454749 </i>
    <i name="atom">    704.16778566 </i>
    <i name="e_fr_energy">    -21.45630020 </i>
    <i name="e_wo_entrp">    -21.45630020 </i>
    <i name="e_0_energy">    -21.45630020 </i>
   </energy>
  </scstep>
  <scstep>
   <time name="dav">    1.93    1.93</time>
   <time name="total">    2.05    2.05</time>
   <energy>
    <i name="e_fr_energy">    -21.45635029 </i>
    <i name="e_wo_entrp">    -21.45635029 </i>
    <i name="e_0_energy">    -21.45635029 </i>
   </energy>
  </scstep>
  <scstep>
   <time name="dav">    1.48    1.48</time>
   <time name="total">    1.59    1.59</time>
   <energy>
    <i name="e_fr_energy">    -21.45635154 </i>
    <i name="e_wo_entrp">    -21.45635154 </i>
    <i name="e_0_energy">    -21.45635154 </i>
   </energy>
  </scstep>
  <scstep>
   <time name="dav">    1.35    1.35</time>
   <time name="total">    1.46    1.46</time>
   <energy>
    <i name="e_fr_energy">    -21.45635489 </i>
    <i name="e_wo_entrp">    -21.45635489 </i>
    <i name="e_0_energy">    -21.45635489 </i>
   </energy>
  </scstep>
  <scstep>
   <time name="dav">    1.19    1.19</time>
   <time name="total">    1.30    1.31</time>
   <energy>
    <i name="e_fr_energy">    -21.45635498 </i>
    <i name="e_wo_entrp">    -21.45635498 </i>
    <i name="e_0_energy">    -21.45635498 </i>
   </energy>
  </scstep>
  <scstep>
   <time name="dav">    1.19    1.19</time>
   <time name="total">    1.21    1.21</time>
   <energy>
    <i name="alphaZ">      5.21604107 </i>
    <i name="ewald">   1846.22999365 </i>
    <i name="hartreedc">  -2455.07070305 </i>
    <i name="XCdc">     14.02997874 </i>
    <i name="pawpsdc">   2077.14036177 </i>
    <i name="pawaedc">  -2044.82465574 </i>
    <i name="eentropy">     -0.00000000 </i>
    <i name="bandstr">   -168.34515768 </i>
    <i name="atom">    704.16778566 </i>
    <i name="e_fr_energy">    -21.45635558 </i>
    <i name="e_wo_entrp">    -21.45635558 </i>
    <i name="e_0_energy">    -21.45635558 </i>
   </energy>
  </scstep>
  <structure>
   <crystal>
    <varray name="basis" >
     <v>       3.30954500       0.00000000       0.00000000 </v>
     <v>       0.00000000       4.64065600      -0.00005300 </v>
     <v>       0.00000000       0.00000000      20.02439000 </v>
    </varray>
    <i name="volume">    307.54379007 </i>
    <varray name="rec_basis" >
     <v>       0.30215634       0.00000000       0.00000000 </v>
     <v>       0.00000000       0.21548678       0.00000000 </v>
     <v>       0.00000000       0.00000057       0.04993910 </v>
    </varray>
   </crystal>
   <varray name="positions" >
    <v>       0.50000000       0.91037251       0.55249568 </v>
    <v>       0.50000000       0.08962749       0.44750432 </v>
    <v>      -0.00000000       0.41036832       0.44750432 </v>
    <v>       0.00000000       0.58963168       0.55249568 </v>
   </varray>
  </structure>
  <varray name="forces" >
   <v>      -0.00000005      -0.02551736      -0.01584632 </v>
   <v>       0.00000005       0.02551736       0.01584632 </v>
   <v>       0.00000005      -0.02554281       0.01584727 </v>
   <v>      -0.00000005       0.02554281      -0.01584727 </v>
  </varray>
  <varray name="stress" >
   <v>      -2.22732430      -0.00000107      -0.00000078 </v>
   <v>      -0.00000112      -1.24079925       0.00029419 </v>
   <v>      -0.00000078       0.00029426      -0.42836488 </v>
  </varray>
  <energy>
   <i name="e_fr_energy">    -21.45635558 </i>
   <i name="e_wo_entrp">    -21.45635558 </i>
   <i name="e_0_energy">     -0.00000000 </i>
  </energy>
  <time name="totalsc">   10.11   10.13</time>
 </calculation>
 <calculation>
  <scstep>
   <time name="dav">    1.58    1.58</time>
   <time name="total">    1.69    1.69</time>
   <energy>
    <i name="alphaZ">      5.21604107 </i>
    <i name="ewald">   1846.79561943 </i>
    <i name="hartreedc">  -2455.54579267 </i>
    <i name="XCdc">     14.03891056 </i>
    <i name="pawpsdc">   2077.25898021 </i>
    <i name="pawaedc">  -2044.94326696 </i>
    <i name="eentropy">     -0.00000000 </i>
    <i name="bandstr">   -168.44469121 </i>
    <i name="atom">    704.16778566 </i>
    <i name="e_fr_energy">    -21.45641390 </i>
    <i name="e_wo_entrp">    -21.45641390 </i>
    <i name="e_0_energy">    -21.45641390 </i>
   </energy>
  </scstep>
  <scstep>
   <time name="dav">    1.93    1.93</time>
   <time name="total">    2.04    2.05</time>
   <energy>
    <i name="e_fr_energy">    -21.45644339 </i>
    <i name="e_wo_entrp">    -21.45644339 </i>
    <i name="e_0_energy">    -21.45644339 </i>
   </energy>
  </scstep>
  <scstep>
   <time name="dav">    1.33    1.33</time>
   <time name="total">    1.44    1.44</time>
   <energy>
    <i name="e_fr_energy">    -21.45644369 </i>
    <i name="e_wo_entrp">    -21.45644369 </i>
    <i name="e_0_energy">    -21.45644369 </i>
   </energy>
  </scstep>
  <scstep>
   <time name="dav">    1.18    1.18</time>
   <time name="total">    1.29    1.29</time>
   <energy>
    <i name="e_fr_energy">    -21.45644494 </i>
    <i name="e_wo_entrp">    -21.45644494 </i>
    <i name="e_0_energy">    -21.45644494 </i>
   </energy>
  </scstep>
  <scstep>
   <time name="dav">    1.15    1.15</time>
   <time name="total">    1.26    1.27</time>
   <energy>
    <i name="e_fr_energy">    -21.45644493 </i>
    <i name="e_wo_entrp">    -21.45644493 </i>
    <i name="e_0_energy">    -21.45644493 </i>
   </energy>
  </scstep>
  <scstep>
   <time name="dav">    1.15    1.15</time>
   <time name="total">    1.17    1.17</time>
   <energy>
    <i name="alphaZ">      5.21604107 </i>
    <i name="ewald">   1846.79561943 </i>
    <i name="hartreedc">  -2455.54635198 </i>
    <i name="XCdc">     14.03985193 </i>
    <i name="pawpsdc">   2082.88297136 </i>
    <i name="pawaedc">  -2050.56933797 </i>
    <i name="eentropy">     -0.00000000 </i>
    <i name="bandstr">   -168.44302459 </i>
    <i name="atom">    704.16778566 </i>
    <i name="e_fr_energy">    -21.45644508 </i>
    <i name="e_wo_entrp">    -21.45644508 </i>
    <i name="e_0_energy">    -21.45644508 </i>
   </energy>
  </scstep>
  <structure>
   <crystal>
    <varray name="basis" >
     <v>       3.30954500       0.00000000       0.00000000 </v>
     <v>       0.00000000       4.64065600      -0.00005300 </v>
     <v>       0.00000000       0.00000000      20.02439000 </v>
    </varray>
    <i name="volume">    307.54379007 </i>
    <varray name="rec_basis" >
     <v>       0.30215634       0.00000000       0.00000000 </v>
     <v>       0.00000000       0.21548678       0.00000000 </v>
     <v>       0.00000000       0.00000057       0.04993910 </v>
    </varray>
   </crystal>
   <varray name="positions" >
    <v>       0.50000001       0.91006712       0.55247638 </v>
    <v>       0.49999999       0.08993288       0.44752362 </v>
    <v>      -0.00000001       0.41006279       0.44752363 </v>
    <v>       0.00000001       0.58993721       0.55247637 </v>
   </varray>
  </structure>
  <varray name="forces" >
   <v>      -0.00000008       0.00409822      -0.01472950 </v>
   <v>       0.00000008      -0.00409822       0.01472950 </v>
   <v>       0.00000006       0.00407661       0.01472795 </v>
   <v>      -0.00000006      -0.00407661      -0.01472795 </v>
  </varray>
  <varray name="stress" >
   <v>      -2.09304302      -0.00000050      -0.00000152 </v>
   <v>      -0.00000054      -0.79882305       0.00024697 </v>
   <v>      -0.00000155       0.00024706      -0.40230119 </v>
  </varray>
  <energy>
   <i name="e_fr_energy">    -21.45644508 </i>
   <i name="e_wo_entrp">    -21.45644508 </i>
   <i name="e_0_energy">     -0.00000000 </i>
  </energy>
  <time name="totalsc">    9.67    9.68</time>
 </calculation>
 <calculation>
  <scstep>
   <time name="dav">    1.46    1.46</time>
   <time name="total">    1.58    1.58</time>
   <energy>
    <i name="alphaZ">      5.21604107 </i>
    <i name="ewald">   1847.27052827 </i>
    <i name="hartreedc">  -2455.99497118 </i>
    <i name="XCdc">     14.04297091 </i>
    <i name="pawpsdc">   2083.01706126 </i>
    <i name="pawaedc">  -2050.70342770 </i>
    <i name="eentropy">     -0.00000000 </i>
    <i name="bandstr">   -168.47245221 </i>
    <i name="atom">    704.16778566 </i>
    <i name="e_fr_energy">    -21.45646391 </i>
    <i name="e_wo_entrp">    -21.45646391 </i>
    <i name="e_0_energy">    -21.45646391 </i>
   </energy>
  </scstep>
  <scstep>
   <time name="dav">    1.72    1.72</time>
   <time name="total">    1.83    1.84</time>
   <energy>
    <i name="e_fr_energy">    -21.45646914 </i>
    <i name="e_wo_entrp">    -21.45646914 </i>
    <i name="e_0_energy">    -21.45646914 </i>
   </energy>
  </scstep>
  <scstep>
   <time name="dav">    1.17    1.17</time>
   <time name="total">    1.28    1.28</time>
   <energy>
    <i name="e_fr_energy">    -21.45646922 </i>
    <i name="e_wo_entrp">    -21.45646922 </i>
    <i name="e_0_energy">    -21.45646922 </i>
   </energy>
  </scstep>
  <scstep>
   <time name="dav">    1.16    1.16</time>
   <time name="total">    1.27    1.28</time>
   <energy>
    <i name="e_fr_energy">    -21.45646953 </i>
    <i name="e_wo_entrp">    -21.45646953 </i>
    <i name="e_0_energy">    -21.45646953 </i>
   </energy>
  </scstep>
  <scstep>
   <time name="dav">    1.13    1.13</time>
   <time name="total">    1.24    1.24</time>
   <energy>
    <i name="e_fr_energy">    -21.45646959 </i>
    <i name="e_wo_entrp">    -21.45646959 </i>
    <i name="e_0_energy">    -21.45646959 </i>
   </energy>
  </scstep>
  <scstep>
   <time name="dav">    1.12    1.12</time>
   <time name="total">    1.14    1.14</time>
   <energy>
    <i name="alphaZ">      5.21604107 </i>
    <i name="ewald">   1847.27052827 </i>
    <i name="hartreedc">  -2455.99271539 </i>
    <i name="XCdc">     14.04315538 </i>
    <i name="pawpsdc">   2084.65959918 </i>
    <i name="pawaedc">  -2052.34647058 </i>
    <i name="eentropy">     -0.00000000 </i>
    <i name="bandstr">   -168.47439325 </i>
    <i name="atom">    704.16778566 </i>
    <i name="e_fr_energy">    -21.45646966 </i>
    <i name="e_wo_entrp">    -21.45646966 </i>
    <i name="e_0_energy">    -21.45646966 </i>
   </energy>
  </scstep>
  <structure>
   <crystal>
    <varray name="basis" >
     <v>       3.30954500       0.00000000       0.00000000 </v>
     <v>       0.00000000       4.64065600      -0.00005300 </v>
     <v>       0.00000000       0.00000000      20.02439000 </v>
    </varray>
    <i name="volume">    307.54379007 </i>
    <varray name="rec_basis" >
     <v>       0.30215634       0.00000000       0.00000000 </v>
     <v>       0.00000000       0.21548678       0.00000000 </v>
     <v>       0.00000000       0.00000057       0.04993910 </v>
    </varray>
   </crystal>
   <varray name="positions" >
    <v>       0.50000000       0.91007177       0.55245027 </v>
    <v>       0.50000000       0.08992823       0.44754973 </v>
    <v>      -0.00000000       0.41006727       0.44754973 </v>
    <v>       0.00000000       0.58993273       0.55245027 </v>
   </varray>
  </structure>
  <varray name="forces" >
   <v>      -0.00000005       0.00186277      -0.00709331 </v>
   <v>       0.00000005      -0.00186277       0.00709331 </v>
   <v>       0.00000007       0.00184546       0.00709232 </v>
   <v>      -0.00000007      -0.00184546      -0.00709232 </v>
  </varray>
  <varray name="stress" >
   <v>      -2.08272961      -0.00000001      -0.00000140 </v>
   <v>       0.00000005      -0.77788271       0.00020030 </v>
   <v>      -0.00000143       0.00020028      -0.23063941 </v>
  </varray>
  <energy>
   <i name="e_fr_energy">    -21.45646966 </i>
   <i name="e_wo_entrp">    -21.45646966 </i>
   <i name="e_0_energy">     -0.00000000 </i>
  </energy>
  <time name="totalsc">    9.06    9.08</time>
  <eigenvalues>
   <array>
    <dimension dim="1">band</dimension>
    <dimension dim="2">kpoint</dimension>
    <dimension dim="3">spin</dimension>
    <field>eigene</field>
    <field>occ</field>
    <set>
     <set comment="spin 1">
      <set comment="kpoint 1">
       <r>  -17.2179    1.0000 </r>
       <r>  -14.7697    1.0000 </r>
       <r>  -11.4857    1.0000 </r>
       <r>   -7.9349    1.0000 </r>
       <r>   -7.0163    1.0000 </r>
       <r>   -6.7570    1.0000 </r>
       <r>   -5.6430    1.0000 </r>
       <r>   -4.0737    1.0000 </r>
       <r>   -3.9179    1.0000 </r>
       <r>   -2.3064    1.0000 </r>
       <r>   -1.3697    0.0000 </r>
       <r>   -0.6922    0.0000 </r>
       <r>    0.3186    0.0000 </r>
       <r>    0.9610    0.0000 </r>
       <r>    2.1209    0.0000 </r>
       <r>    2.2916    0.0000 </r>
      </set>
      <set comment="kpoint 2">
       <r>  -17.1911    1.0000 </r>
       <r>  -14.7416    1.0000 </r>
       <r>  -11.4950    1.0000 </r>
       <r>   -7.9146    1.0000 </r>
       <r>   -7.0356    1.0000 </r>
       <r>   -6.7334    1.0000 </r>
       <r>   -5.8151    1.0000 </r>
       <r>   -4.2541    1.0000 </r>
       <r>   -3.9075    1.0000 </r>
       <r>   -2.3070    1.0000 </r>
       <r>   -1.3447    0.0000 </r>
       <r>   -0.4516    0.0000 </r>
       <r>    0.5575    0.0000 </r>
       <r>    0.7981    0.0000 </r>
       <r>    2.1487    0.0000 </r>
       <r>    2.3215    0.0000 </r>
      </set>
      <set comment="kpoint 3">
       <r>  -17.1109    1.0000 </r>
       <r>  -14.6577    1.0000 </r>
       <r>  -11.5285    1.0000 </r>
       <r>   -7.8546    1.0000 </r>
       <r>   -7.1134    1.0000 </r>
       <r>   -6.6631    1.0000 </r>
       <r>   -6.2353    1.0000 </r>
       <r>   -4.6692    1.0000 </r>
       <r>   -3.8801    1.0000 </r>
       <r>   -2.3274    1.0000 </r>
       <r>   -1.2701    0.0000 </r>
       <r>    0.1934    0.0000 </r>
       <r>    0.3938    0.0000 </r>
       <r>    1.1431    0.0000 </r>
       <r>    2.2274    0.0000 </r>
       <r>    2.4109    0.0000 </r>
      </set>
      <set comment="kpoint 4">
       <r>  -16.9775    1.0000 </r>
       <r>  -14.5180    1.0000 </r>
       <r>  -11.6020    1.0000 </r>
       <r>   -7.7572    1.0000 </r>
       <r>   -7.3106    1.0000 </r>
       <r>   -6.7364    1.0000 </r>
       <r>   -6.5474    1.0000 </r>
       <r>   -5.0899    1.0000 </r>
       <r>   -3.8477    1.0000 </r>
       <r>   -2.3880    1.0000 </r>
       <r>   -1.1473    0.0000 </r>
       <r>   -0.1044    0.0000 </r>
       <r>    1.0949    0.0000 </r>
       <r>    1.7645    0.0000 </r>
       <r>    2.2945    0.0000 </r>
       <r>    2.5595    0.0000 </r>
      </set>
      <set comment="kpoint 5">
       <r>  -16.7918    1.0000 </r>
       <r>  -14.3227    1.0000 </r>
       <r>  -11.7402    1.0000 </r>
       <r>   -7.6937    1.0000 </r>
       <r>   -7.6273    1.0000 </r>
       <r>   -7.1948    1.0000 </r>
       <r>   -6.3887    1.0000 </r>
       <r>   -5.3494    1.0000 </r>
       <r>   -3.8335    1.0000 </r>
       <r>   -2.4999    1.0000 </r>
       <r>   -0.9796    0.0000 </r>
       <r>   -0.5810    0.0000 </r>
       <r>    1.7881    0.0000 </r>
       <r>    1.9097    0.0000 </r>
       <r>    2.1052    0.0000 </r>
       <r>    2.6689    0.0000 </r>
      </set>
      <set comment="kpoint 6">
       <r>  -16.5546    1.0000 </r>
       <r>  -14.0724    1.0000 </r>
       <r>  -11.9680    1.0000 </r>
       <r>   -8.2472    1.0000 </r>
       <r>   -7.5355    1.0000 </r>
       <r>   -7.4733    1.0000 </r>
       <r>   -6.1915    1.0000 </r>
       <r>   -5.4178    1.0000 </r>
       <r>   -3.8712    1.0000 </r>
       <r>   -2.6715    1.0000 </r>
       <r>   -0.9478    0.0000 </r>
       <r>   -0.7747    0.0000 </r>
       <r>    1.2304    0.0000 </r>
       <r>    1.3376    0.0000 </r>
       <r>    2.5415    0.0000 </r>
       <r>    2.9192    0.0000 </r>
      </set>
      <set comment="kpoint 7">
       <r>  -16.2673    1.0000 </r>
       <r>  -13.7677    1.0000 </r>
       <r>  -12.2960    1.0000 </r>
       <r>   -8.8917    1.0000 </r>
       <r>   -7.7240    1.0000 </r>
       <r>   -7.3096    1.0000 </r>
       <r>   -5.9623    1.0000 </r>
       <r>   -5.3583    1.0000 </r>
       <r>   -3.9874    1.0000 </r>
       <r>   -2.9057    1.0000 </r>
       <r>   -1.1395    0.0000 </r>
       <r>   -0.5571    0.0000 </r>
       <r>    0.5924    0.0000 </r>
       <r>    0.8054    0.0000 </r>
       <r>    2.1050    0.0000 </r>
       <r>    3.2454    0.0000 </r>
      </set>
      <set comment="kpoint 8">
       <r>  -15.9320    1.0000 </r>
       <r>  -13.4093    1.0000 </r>
       <r>  -12.7111    1.0000 </r>
       <r>   -9.5634    1.0000 </r>
       <r>   -7.7641    1.0000 </r>
       <r>   -7.1606    1.0000 </r>
       <r>   -5.7122    1.0000 </r>
       <r>   -5.2357    1.0000 </r>
       <r>   -4.1641    1.0000 </r>
       <r>   -3.1937    1.0000 </r>
       <r>   -1.1371    0.0000 </r>
       <r>   -0.4292    0.0000 </r>
       <r>   -0.0005    0.0000 </r>
       <r>    0.4531    0.0000 </r>
       <r>    1.6065    0.0000 </r>
       <r>    2.9975    0.0000 </r>
      </set>
      <set comment="kpoint 9">
       <r>  -15.5514    1.0000 </r>
       <r>  -13.1841    1.0000 </r>
       <r>  -12.9982    1.0000 </r>
       <r>  -10.2273    1.0000 </r>
       <r>   -7.6848    1.0000 </r>
       <r>   -7.0632    1.0000 </r>
       <r>   -5.4586    1.0000 </r>
       <r>   -5.1007    1.0000 </r>
       <r>   -4.3294    1.0000 </r>
       <r>   -3.5145    1.0000 </r>
       <r>   -0.9697    0.0000 </r>
       <r>   -0.5867    0.0000 </r>
       <r>   -0.4988    0.0000 </r>
       <r>    0.5046    0.0000 </r>
       <r>    1.1042    0.0000 </r>
       <r>    2.5893    0.0000 </r>
      </set>
      <set comment="kpoint 10">
       <r>  -15.1292    1.0000 </r>
       <r>  -13.6838    1.0000 </r>
       <r>  -12.5359    1.0000 </r>
       <r>  -10.8649    1.0000 </r>
       <r>   -7.5261    1.0000 </r>
       <r>   -7.0581    1.0000 </r>
       <r>   -5.2280    1.0000 </r>
       <r>   -4.9999    1.0000 </r>
       <r>   -4.3983    1.0000 </r>
       <r>   -3.8372    1.0000 </r>
       <r>   -0.8602    0.0000 </r>
       <r>   -0.8586    0.0000 </r>
       <r>   -0.6807    0.0000 </r>
       <r>    0.6073    0.0000 </r>
       <r>    0.8192    0.0000 </r>
       <r>    2.1348    0.0000 </r>
      </set>
      <set comment="kpoint 11">
       <r>  -14.6712    1.0000 </r>
       <r>  -14.1854    1.0000 </r>
       <r>  -12.0242    1.0000 </r>
       <r>  -11.4659    1.0000 </r>
       <r>   -7.3334    1.0000 </r>
       <r>   -7.1589    1.0000 </r>
       <r>   -5.0562    1.0000 </r>
       <r>   -4.9769    1.0000 </r>
       <r>   -4.3248    1.0000 </r>
       <r>   -4.1227    1.0000 </r>
       <r>   -1.0458    0.0000 </r>
       <r>   -1.0376    0.0000 </r>
       <r>   -0.3051    0.0000 </r>
       <r>    0.1311    0.0000 </r>
       <r>    1.2245    0.0000 </r>
       <r>    1.6712    0.0000 </r>
      </set>
      <set comment="kpoint 12">
       <r>  -17.1967    1.0000 </r>
       <r>  -14.8005    1.0000 </r>
       <r>  -11.4907    1.0000 </r>
       <r>   -8.0964    1.0000 </r>
       <r>   -6.9115    1.0000 </r>
       <r>   -6.6675    1.0000 </r>
       <r>   -5.6267    1.0000 </r>
       <r>   -4.0891    1.0000 </r>
       <r>   -3.8272    1.0000 </r>
       <r>   -2.5019    1.0000 </r>
       <r>   -1.1877    0.0000 </r>
       <r>   -0.6755    0.0000 </r>
       <r>    0.2722    0.0000 </r>
       <r>    0.9488    0.0000 </r>
       <r>    2.1781    0.0000 </r>
       <r>    2.3215    0.0000 </r>
      </set>
      <set comment="kpoint 13">
       <r>  -17.1699    1.0000 </r>
       <r>  -14.7727    1.0000 </r>
       <r>  -11.4987    1.0000 </r>
       <r>   -8.0804    1.0000 </r>
       <r>   -6.9244    1.0000 </r>
       <r>   -6.6530    1.0000 </r>
       <r>   -5.7902    1.0000 </r>
       <r>   -4.2762    1.0000 </r>
       <r>   -3.8164    1.0000 </r>
       <r>   -2.4986    1.0000 </r>
       <r>   -1.1668    0.0000 </r>
       <r>   -0.4354    0.0000 </r>
       <r>    0.5032    0.0000 </r>
       <r>    0.7986    0.0000 </r>
       <r>    2.2046    0.0000 </r>
       <r>    2.3513    0.0000 </r>
      </set>
      <set comment="kpoint 14">
       <r>  -17.0898    1.0000 </r>
       <r>  -14.6893    1.0000 </r>
       <r>  -11.5282    1.0000 </r>
       <r>   -8.0366    1.0000 </r>
       <r>   -6.9799    1.0000 </r>
       <r>   -6.6381    1.0000 </r>
       <r>   -6.1577    1.0000 </r>
       <r>   -4.7013    1.0000 </r>
       <r>   -3.7955    1.0000 </r>
       <r>   -2.5037    1.0000 </r>
       <r>   -1.1077    0.0000 </r>
       <r>    0.2086    0.0000 </r>
       <r>    0.3797    0.0000 </r>
       <r>    1.1194    0.0000 </r>
       <r>    2.2795    0.0000 </r>
       <r>    2.4405    0.0000 </r>
      </set>
      <set comment="kpoint 15">
       <r>  -16.9566    1.0000 </r>
       <r>  -14.5506    1.0000 </r>
       <r>  -11.5950    1.0000 </r>
       <r>   -7.9860    1.0000 </r>
       <r>   -7.1228    1.0000 </r>
       <r>   -6.8526    1.0000 </r>
       <r>   -6.3349    1.0000 </r>
       <r>   -5.1314    1.0000 </r>
       <r>   -3.7784    1.0000 </r>
       <r>   -2.5380    1.0000 </r>
       <r>   -1.0101    0.0000 </r>
       <r>   -0.0964    0.0000 </r>
       <r>    1.1046    0.0000 </r>
       <r>    1.7599    0.0000 </r>
       <r>    2.2969    0.0000 </r>
       <r>    2.5382    0.0000 </r>
      </set>
      <set comment="kpoint 16">
       <r>  -16.7710    1.0000 </r>
       <r>  -14.3573    1.0000 </r>
       <r>  -11.7240    1.0000 </r>
       <r>   -8.0221    1.0000 </r>
       <r>   -7.3377    1.0000 </r>
       <r>   -7.2648    1.0000 </r>
       <r>   -6.2324    1.0000 </r>
       <r>   -5.3940    1.0000 </r>
       <r>   -3.7887    1.0000 </r>
       <r>   -2.6178    1.0000 </r>
       <r>   -0.8721    0.0000 </r>
       <r>   -0.5444    0.0000 </r>
       <r>    1.7147    0.0000 </r>
       <r>    1.8528    0.0000 </r>
       <r>    2.1884    0.0000 </r>
       <r>    2.6343    0.0000 </r>
      </set>
      <set comment="kpoint 17">
       <r>  -16.5340    1.0000 </r>
       <r>  -14.1104    1.0000 </r>
       <r>  -11.9407    1.0000 </r>
       <r>   -8.3661    1.0000 </r>
       <r>   -7.5968    1.0000 </r>
       <r>   -7.3956    1.0000 </r>
       <r>   -6.0568    1.0000 </r>
       <r>   -5.4613    1.0000 </r>
       <r>   -3.8573    1.0000 </r>
       <r>   -2.7569    1.0000 </r>
       <r>   -0.8746    0.0000 </r>
       <r>   -0.6967    0.0000 </r>
       <r>    1.1586    0.0000 </r>
       <r>    1.3248    0.0000 </r>
       <r>    2.6068    0.0000 </r>
       <r>    3.0283    0.0000 </r>
      </set>
      <set comment="kpoint 18">
       <r>  -16.2472    1.0000 </r>
       <r>  -13.8129    1.0000 </r>
       <r>  -12.2552    1.0000 </r>
       <r>   -8.9486    1.0000 </r>
       <r>   -7.7825    1.0000 </r>
       <r>   -7.2943    1.0000 </r>
       <r>   -5.8464    1.0000 </r>
       <r>   -5.4070    1.0000 </r>
       <r>   -3.9977    1.0000 </r>
       <r>   -2.9610    1.0000 </r>
       <r>   -1.0310    0.0000 </r>
       <r>   -0.5065    0.0000 </r>
       <r>    0.6297    0.0000 </r>
       <r>    0.6925    0.0000 </r>
       <r>    2.2767    0.0000 </r>
       <r>    3.2255    0.0000 </r>
      </set>
      <set comment="kpoint 19">
       <r>  -15.9125    1.0000 </r>
       <r>  -13.4772    1.0000 </r>
       <r>  -12.6436    1.0000 </r>
       <r>   -9.5991    1.0000 </r>
       <r>   -7.8191    1.0000 </r>
       <r>   -7.1622    1.0000 </r>
       <r>   -5.6205    1.0000 </r>
       <r>   -5.3077    1.0000 </r>
       <r>   -4.1707    1.0000 </r>
       <r>   -3.2206    1.0000 </r>
       <r>   -1.0083    0.0000 </r>
       <r>   -0.4224    0.0000 </r>
       <r>    0.0992    0.0000 </r>
       <r>    0.3018    0.0000 </r>
       <r>    1.8256    0.0000 </r>
       <r>    2.9451    0.0000 </r>
      </set>
      <set comment="kpoint 20">
       <r>  -15.5327    1.0000 </r>
       <r>  -13.2925    1.0000 </r>
       <r>  -12.8884    1.0000 </r>
       <r>  -10.2532    1.0000 </r>
       <r>   -7.7339    1.0000 </r>
       <r>   -7.0678    1.0000 </r>
       <r>   -5.4037    1.0000 </r>
       <r>   -5.2231    1.0000 </r>
       <r>   -4.2884    1.0000 </r>
       <r>   -3.5101    1.0000 </r>
       <r>   -0.8594    0.0000 </r>
       <r>   -0.6407    0.0000 </r>
       <r>   -0.3832    0.0000 </r>
       <r>    0.3864    0.0000 </r>
       <r>    1.3654    0.0000 </r>
       <r>    2.5456    0.0000 </r>
      </set>
      <set comment="kpoint 21">
       <r>  -15.1121    1.0000 </r>
       <r>  -13.6903    1.0000 </r>
       <r>  -12.5276    1.0000 </r>
       <r>  -10.8848    1.0000 </r>
       <r>   -7.5666    1.0000 </r>
       <r>   -7.0655    1.0000 </r>
       <r>   -5.2317    1.0000 </r>
       <r>   -5.1742    1.0000 </r>
       <r>   -4.2880    1.0000 </r>
       <r>   -3.7915    1.0000 </r>
       <r>   -0.9217    0.0000 </r>
       <r>   -0.8872    0.0000 </r>
       <r>   -0.4501    0.0000 </r>
       <r>    0.5626    0.0000 </r>
       <r>    1.0288    0.0000 </r>
       <r>    2.1006    0.0000 </r>
      </set>
      <set comment="kpoint 22">
       <r>  -14.6568    1.0000 </r>
       <r>  -14.1766    1.0000 </r>
       <r>  -12.0319    1.0000 </r>
       <r>  -11.4806    1.0000 </r>
       <r>   -7.3624    1.0000 </r>
       <r>   -7.1754    1.0000 </r>
       <r>   -5.1426    1.0000 </r>
       <r>   -5.1396    1.0000 </r>
       <r>   -4.1906    1.0000 </r>
       <r>   -4.0249    1.0000 </r>
       <r>   -1.0848    0.0000 </r>
       <r>   -1.0697    0.0000 </r>
       <r>   -0.1161    0.0000 </r>
       <r>    0.2850    0.0000 </r>
       <r>    1.2383    0.0000 </r>
       <r>    1.6516    0.0000 </r>
      </set>
      <set comment="kpoint 23">
       <r>  -14.6568    1.0000 </r>
       <r>  -14.1766    1.0000 </r>
       <r>  -12.0319    1.0000 </r>
       <r>  -11.4806    1.0000 </r>
       <r>   -7.3624    1.0000 </r>
       <r>   -7.1754    1.0000 </r>
       <r>   -5.1426    1.0000 </r>
       <r>   -5.1396    1.0000 </r>
       <r>   -4.1906    1.0000 </r>
       <r>   -4.0249    1.0000 </r>
       <r>   -1.0848    0.0000 </r>
       <r>   -1.0697    0.0000 </r>
       <r>   -0.1161    0.0000 </r>
       <r>    0.2850    0.0000 </r>
       <r>    1.2383    0.0000 </r>
       <r>    1.6516    0.0000 </r>
      </set>
      <set comment="kpoint 24">
       <r>  -15.1121    1.0000 </r>
       <r>  -13.6903    1.0000 </r>
       <r>  -12.5276    1.0000 </r>
       <r>  -10.8848    1.0000 </r>
       <r>   -7.5666    1.0000 </r>
       <r>   -7.0655    1.0000 </r>
       <r>   -5.2317    1.0000 </r>
       <r>   -5.1742    1.0000 </r>
       <r>   -4.2880    1.0000 </r>
       <r>   -3.7915    1.0000 </r>
       <r>   -0.9217    0.0000 </r>
       <r>   -0.8872    0.0000 </r>
       <r>   -0.4501    0.0000 </r>
       <r>    0.5626    0.0000 </r>
       <r>    1.0288    0.0000 </r>
       <r>    2.1006    0.0000 </r>
      </set>
      <set comment="kpoint 25">
       <r>  -15.5327    1.0000 </r>
       <r>  -13.2925    1.0000 </r>
       <r>  -12.8884    1.0000 </r>
       <r>  -10.2532    1.0000 </r>
       <r>   -7.7339    1.0000 </r>
       <r>   -7.0678    1.0000 </r>
       <r>   -5.4037    1.0000 </r>
       <r>   -5.2231    1.0000 </r>
       <r>   -4.2884    1.0000 </r>
       <r>   -3.5101    1.0000 </r>
       <r>   -0.8594    0.0000 </r>
       <r>   -0.6407    0.0000 </r>
       <r>   -0.3832    0.0000 </r>
       <r>    0.3864    0.0000 </r>
       <r>    1.3654    0.0000 </r>
       <r>    2.5456    0.0000 </r>
      </set>
      <set comment="kpoint 26">
       <r>  -15.9125    1.0000 </r>
       <r>  -13.4772    1.0000 </r>
       <r>  -12.6436    1.0000 </r>
       <r>   -9.5991    1.0000 </r>
       <r>   -7.8191    1.0000 </r>
       <r>   -7.1622    1.0000 </r>
       <r>   -5.6205    1.0000 </r>
       <r>   -5.3077    1.0000 </r>
       <r>   -4.1707    1.0000 </r>
       <r>   -3.2206    1.0000 </r>
       <r>   -1.0083    0.0000 </r>
       <r>   -0.4224    0.0000 </r>
       <r>    0.0992    0.0000 </r>
       <r>    0.3018    0.0000 </r>
       <r>    1.8256    0.0000 </r>
       <r>    2.9451    0.0000 </r>
      </set>
      <set comment="kpoint 27">
       <r>  -16.2472    1.0000 </r>
       <r>  -13.8129    1.0000 </r>
       <r>  -12.2552    1.0000 </r>
       <r>   -8.9486    1.0000 </r>
       <r>   -7.7825    1.0000 </r>
       <r>   -7.2943    1.0000 </r>
       <r>   -5.8464    1.0000 </r>
       <r>   -5.4070    1.0000 </r>
       <r>   -3.9977    1.0000 </r>
       <r>   -2.9610    1.0000 </r>
       <r>   -1.0310    0.0000 </r>
       <r>   -0.5065    0.0000 </r>
       <r>    0.6297    0.0000 </r>
       <r>    0.6925    0.0000 </r>
       <r>    2.2767    0.0000 </r>
       <r>    3.2255    0.0000 </r>
      </set>
      <set comment="kpoint 28">
       <r>  -16.5340    1.0000 </r>
       <r>  -14.1104    1.0000 </r>
       <r>  -11.9407    1.0000 </r>
       <r>   -8.3661    1.0000 </r>
       <r>   -7.5968    1.0000 </r>
       <r>   -7.3956    1.0000 </r>
       <r>   -6.0568    1.0000 </r>
       <r>   -5.4613    1.0000 </r>
       <r>   -3.8573    1.0000 </r>
       <r>   -2.7569    1.0000 </r>
       <r>   -0.8746    0.0000 </r>
       <r>   -0.6967    0.0000 </r>
       <r>    1.1586    0.0000 </r>
       <r>    1.3248    0.0000 </r>
       <r>    2.6068    0.0000 </r>
       <r>    3.0291    0.0000 </r>
      </set>
      <set comment="kpoint 29">
       <r>  -16.7710    1.0000 </r>
       <r>  -14.3573    1.0000 </r>
       <r>  -11.7240    1.0000 </r>
       <r>   -8.0221    1.0000 </r>
       <r>   -7.3377    1.0000 </r>
       <r>   -7.2648    1.0000 </r>
       <r>   -6.2324    1.0000 </r>
       <r>   -5.3940    1.0000 </r>
       <r>   -3.7887    1.0000 </r>
       <r>   -2.6178    1.0000 </r>
       <r>   -0.8721    0.0000 </r>
       <r>   -0.5444    0.0000 </r>
       <r>    1.7147    0.0000 </r>
       <r>    1.8528    0.0000 </r>
       <r>    2.1884    0.0000 </r>
       <r>    2.6343    0.0000 </r>
      </set>
      <set comment="kpoint 30">
       <r>  -16.9566    1.0000 </r>
       <r>  -14.5506    1.0000 </r>
       <r>  -11.5950    1.0000 </r>
       <r>   -7.9860    1.0000 </r>
       <r>   -7.1228    1.0000 </r>
       <r>   -6.8526    1.0000 </r>
       <r>   -6.3349    1.0000 </r>
       <r>   -5.1314    1.0000 </r>
       <r>   -3.7784    1.0000 </r>
       <r>   -2.5380    1.0000 </r>
       <r>   -1.0101    0.0000 </r>
       <r>   -0.0964    0.0000 </r>
       <r>    1.1046    0.0000 </r>
       <r>    1.7599    0.0000 </r>
       <r>    2.2969    0.0000 </r>
       <r>    2.5382    0.0000 </r>
      </set>
      <set comment="kpoint 31">
       <r>  -17.0898    1.0000 </r>
       <r>  -14.6893    1.0000 </r>
       <r>  -11.5282    1.0000 </r>
       <r>   -8.0366    1.0000 </r>
       <r>   -6.9799    1.0000 </r>
       <r>   -6.6381    1.0000 </r>
       <r>   -6.1577    1.0000 </r>
       <r>   -4.7013    1.0000 </r>
       <r>   -3.7955    1.0000 </r>
       <r>   -2.5037    1.0000 </r>
       <r>   -1.1077    0.0000 </r>
       <r>    0.2086    0.0000 </r>
       <r>    0.3797    0.0000 </r>
       <r>    1.1194    0.0000 </r>
       <r>    2.2795    0.0000 </r>
       <r>    2.4405    0.0000 </r>
      </set>
      <set comment="kpoint 32">
       <r>  -17.1699    1.0000 </r>
       <r>  -14.7727    1.0000 </r>
       <r>  -11.4987    1.0000 </r>
       <r>   -8.0804    1.0000 </r>
       <r>   -6.9244    1.0000 </r>
       <r>   -6.6530    1.0000 </r>
       <r>   -5.7902    1.0000 </r>
       <r>   -4.2762    1.0000 </r>
       <r>   -3.8164    1.0000 </r>
       <r>   -2.4986    1.0000 </r>
       <r>   -1.1668    0.0000 </r>
       <r>   -0.4354    0.0000 </r>
       <r>    0.5032    0.0000 </r>
       <r>    0.7986    0.0000 </r>
       <r>    2.2046    0.0000 </r>
       <r>    2.3513    0.0000 </r>
      </set>
      <set comment="kpoint 33">
       <r>  -17.1335    1.0000 </r>
       <r>  -14.8926    1.0000 </r>
       <r>  -11.4948    1.0000 </r>
       <r>   -8.4537    1.0000 </r>
       <r>   -6.7045    1.0000 </r>
       <r>   -6.4117    1.0000 </r>
       <r>   -5.5783    1.0000 </r>
       <r>   -4.1358    1.0000 </r>
       <r>   -3.5835    1.0000 </r>
       <r>   -2.8936    1.0000 </r>
       <r>   -0.8325    0.0000 </r>
       <r>   -0.6255    0.0000 </r>
       <r>    0.1376    0.0000 </r>
       <r>    0.9207    0.0000 </r>
       <r>    2.3425    0.0000 </r>
       <r>    2.4106    0.0000 </r>
      </set>
      <set comment="kpoint 34">
       <r>  -17.1068    1.0000 </r>
       <r>  -14.8652    1.0000 </r>
       <r>  -11.4995    1.0000 </r>
       <r>   -8.4413    1.0000 </r>
       <r>   -6.7089    1.0000 </r>
       <r>   -6.4306    1.0000 </r>
       <r>   -5.7098    1.0000 </r>
       <r>   -4.3330    1.0000 </r>
       <r>   -3.5795    1.0000 </r>
       <r>   -2.8862    1.0000 </r>
       <r>   -0.8174    0.0000 </r>
       <r>   -0.3854    0.0000 </r>
       <r>    0.3627    0.0000 </r>
       <r>    0.7932    0.0000 </r>
       <r>    2.3656    0.0000 </r>
       <r>    2.4402    0.0000 </r>
      </set>
      <set comment="kpoint 35">
       <r>  -17.0268    1.0000 </r>
       <r>  -14.7833    1.0000 </r>
       <r>  -11.5187    1.0000 </r>
       <r>   -8.4093    1.0000 </r>
       <r>   -6.7377    1.0000 </r>
       <r>   -6.5714    1.0000 </r>
       <r>   -5.9287    1.0000 </r>
       <r>   -4.7823    1.0000 </r>
       <r>   -3.5818    1.0000 </r>
       <r>   -2.8742    1.0000 </r>
       <r>   -0.7761    0.0000 </r>
       <r>    0.2550    0.0000 </r>
       <r>    0.3592    0.0000 </r>
       <r>    1.0440    0.0000 </r>
       <r>    2.4297    0.0000 </r>
       <r>    2.5287    0.0000 </r>
      </set>
      <set comment="kpoint 36">
       <r>  -16.8939    1.0000 </r>
       <r>  -14.6474    1.0000 </r>
       <r>  -11.5680    1.0000 </r>
       <r>   -8.3794    1.0000 </r>
       <r>   -6.9447    1.0000 </r>
       <r>   -6.8423    1.0000 </r>
       <r>   -5.9644    1.0000 </r>
       <r>   -5.2363    1.0000 </r>
       <r>   -3.6097    1.0000 </r>
       <r>   -2.8742    1.0000 </r>
       <r>   -0.7087    0.0000 </r>
       <r>   -0.0481    0.0000 </r>
       <r>    1.1273    0.0000 </r>
       <r>    1.7246    0.0000 </r>
       <r>    2.0747    0.0000 </r>
       <r>    2.5424    0.0000 </r>
      </set>
      <set comment="kpoint 37">
       <r>  -16.7089    1.0000 </r>
       <r>  -14.4588    1.0000 </r>
       <r>  -11.6728    1.0000 </r>
       <r>   -8.4131    1.0000 </r>
       <r>   -7.3760    1.0000 </r>
       <r>   -7.0592    1.0000 </r>
       <r>   -5.8713    1.0000 </r>
       <r>   -5.5029    1.0000 </r>
       <r>   -3.6872    1.0000 </r>
       <r>   -2.9029    1.0000 </r>
       <r>   -0.6143    0.0000 </r>
       <r>   -0.4143    0.0000 </r>
       <r>    1.3517    0.0000 </r>
       <r>    1.9999    0.0000 </r>
       <r>    2.2837    0.0000 </r>
       <r>    2.6595    0.0000 </r>
      </set>
      <set comment="kpoint 38">
       <r>  -16.4727    1.0000 </r>
       <r>  -14.2202    1.0000 </r>
       <r>  -11.8604    1.0000 </r>
       <r>   -8.6388    1.0000 </r>
       <r>   -7.7174    1.0000 </r>
       <r>   -7.2485    1.0000 </r>
       <r>   -5.7255    1.0000 </r>
       <r>   -5.5628    1.0000 </r>
       <r>   -3.8318    1.0000 </r>
       <r>   -2.9781    1.0000 </r>
       <r>   -0.6510    0.0000 </r>
       <r>   -0.4936    0.0000 </r>
       <r>    0.7974    0.0000 </r>
       <r>    1.5768    0.0000 </r>
       <r>    2.6968    0.0000 </r>
       <r>    3.0919    0.0000 </r>
      </set>
      <set comment="kpoint 39">
       <r>  -16.1870    1.0000 </r>
       <r>  -13.9385    1.0000 </r>
       <r>  -12.1417    1.0000 </r>
       <r>   -9.1080    1.0000 </r>
       <r>   -7.9093    1.0000 </r>
       <r>   -7.2639    1.0000 </r>
       <r>   -5.5589    1.0000 </r>
       <r>   -5.5227    1.0000 </r>
       <r>   -4.0232    1.0000 </r>
       <r>   -3.1099    1.0000 </r>
       <r>   -0.7251    0.0000 </r>
       <r>   -0.3671    0.0000 </r>
       <r>    0.2927    0.0000 </r>
       <r>    0.9693    0.0000 </r>
       <r>    2.5600    0.0000 </r>
       <r>    3.0725    0.0000 </r>
      </set>
      <set comment="kpoint 40">
       <r>  -15.8541    1.0000 </r>
       <r>  -13.6388    1.0000 </r>
       <r>  -12.4831    1.0000 </r>
       <r>   -9.7040    1.0000 </r>
       <r>   -7.9448    1.0000 </r>
       <r>   -7.1733    1.0000 </r>
       <r>   -5.4833    1.0000 </r>
       <r>   -5.4010    1.0000 </r>
       <r>   -4.1829    1.0000 </r>
       <r>   -3.2895    1.0000 </r>
       <r>   -0.6563    0.0000 </r>
       <r>   -0.4340    0.0000 </r>
       <r>    0.0870    0.0000 </r>
       <r>    0.3790    0.0000 </r>
       <r>    2.2563    0.0000 </r>
       <r>    2.8024    0.0000 </r>
      </set>
      <set comment="kpoint 41">
       <r>  -15.4772    1.0000 </r>
       <r>  -13.4647    1.0000 </r>
       <r>  -12.7123    1.0000 </r>
       <r>  -10.3308    1.0000 </r>
       <r>   -7.8499    1.0000 </r>
       <r>   -7.0830    1.0000 </r>
       <r>   -5.4979    1.0000 </r>
       <r>   -5.2913    1.0000 </r>
       <r>   -4.2184    1.0000 </r>
       <r>   -3.4857    1.0000 </r>
       <r>   -0.7574    0.0000 </r>
       <r>   -0.5485    0.0000 </r>
       <r>   -0.0648    0.0000 </r>
       <r>    0.2667    0.0000 </r>
       <r>    1.8703    0.0000 </r>
       <r>    2.4248    0.0000 </r>
      </set>
      <set comment="kpoint 42">
       <r>  -15.0613    1.0000 </r>
       <r>  -13.7127    1.0000 </r>
       <r>  -12.5006    1.0000 </r>
       <r>  -10.9449    1.0000 </r>
       <r>   -7.6643    1.0000 </r>
       <r>   -7.0834    1.0000 </r>
       <r>   -5.5136    1.0000 </r>
       <r>   -5.2702    1.0000 </r>
       <r>   -4.1246    1.0000 </r>
       <r>   -3.6629    1.0000 </r>
       <r>   -1.0155    0.0000 </r>
       <r>   -0.7474    0.0000 </r>
       <r>   -0.0116    0.0000 </r>
       <r>    0.5087    0.0000 </r>
       <r>    1.4911    0.0000 </r>
       <r>    2.0090    0.0000 </r>
      </set>
      <set comment="kpoint 43">
       <r>  -14.6145    1.0000 </r>
       <r>  -14.1519    1.0000 </r>
       <r>  -12.0540    1.0000 </r>
       <r>  -11.5247    1.0000 </r>
       <r>   -7.4336    1.0000 </r>
       <r>   -7.2155    1.0000 </r>
       <r>   -5.4526    1.0000 </r>
       <r>   -5.3431    1.0000 </r>
       <r>   -3.9723    1.0000 </r>
       <r>   -3.8169    1.0000 </r>
       <r>   -1.1101    0.0000 </r>
       <r>   -1.0096    0.0000 </r>
       <r>    0.2961    0.0000 </r>
       <r>    0.5645    0.0000 </r>
       <r>    1.3537    0.0000 </r>
       <r>    1.6133    0.0000 </r>
      </set>
      <set comment="kpoint 44">
       <r>  -14.6145    1.0000 </r>
       <r>  -14.1519    1.0000 </r>
       <r>  -12.0540    1.0000 </r>
       <r>  -11.5247    1.0000 </r>
       <r>   -7.4336    1.0000 </r>
       <r>   -7.2155    1.0000 </r>
       <r>   -5.4526    1.0000 </r>
       <r>   -5.3431    1.0000 </r>
       <r>   -3.9723    1.0000 </r>
       <r>   -3.8169    1.0000 </r>
       <r>   -1.1101    0.0000 </r>
       <r>   -1.0096    0.0000 </r>
       <r>    0.2961    0.0000 </r>
       <r>    0.5645    0.0000 </r>
       <r>    1.3537    0.0000 </r>
       <r>    1.6133    0.0000 </r>
      </set>
      <set comment="kpoint 45">
       <r>  -15.0613    1.0000 </r>
       <r>  -13.7127    1.0000 </r>
       <r>  -12.5006    1.0000 </r>
       <r>  -10.9449    1.0000 </r>
       <r>   -7.6643    1.0000 </r>
       <r>   -7.0834    1.0000 </r>
       <r>   -5.5136    1.0000 </r>
       <r>   -5.2702    1.0000 </r>
       <r>   -4.1246    1.0000 </r>
       <r>   -3.6629    1.0000 </r>
       <r>   -1.0155    0.0000 </r>
       <r>   -0.7474    0.0000 </r>
       <r>   -0.0116    0.0000 </r>
       <r>    0.5087    0.0000 </r>
       <r>    1.4911    0.0000 </r>
       <r>    2.0090    0.0000 </r>
      </set>
      <set comment="kpoint 46">
       <r>  -15.4772    1.0000 </r>
       <r>  -13.4647    1.0000 </r>
       <r>  -12.7123    1.0000 </r>
       <r>  -10.3308    1.0000 </r>
       <r>   -7.8499    1.0000 </r>
       <r>   -7.0830    1.0000 </r>
       <r>   -5.4979    1.0000 </r>
       <r>   -5.2913    1.0000 </r>
       <r>   -4.2184    1.0000 </r>
       <r>   -3.4857    1.0000 </r>
       <r>   -0.7574    0.0000 </r>
       <r>   -0.5485    0.0000 </r>
       <r>   -0.0648    0.0000 </r>
       <r>    0.2667    0.0000 </r>
       <r>    1.8703    0.0000 </r>
       <r>    2.4248    0.0000 </r>
      </set>
      <set comment="kpoint 47">
       <r>  -15.8541    1.0000 </r>
       <r>  -13.6388    1.0000 </r>
       <r>  -12.4831    1.0000 </r>
       <r>   -9.7040    1.0000 </r>
       <r>   -7.9448    1.0000 </r>
       <r>   -7.1733    1.0000 </r>
       <r>   -5.4833    1.0000 </r>
       <r>   -5.4010    1.0000 </r>
       <r>   -4.1829    1.0000 </r>
       <r>   -3.2895    1.0000 </r>
       <r>   -0.6563    0.0000 </r>
       <r>   -0.4340    0.0000 </r>
       <r>    0.0870    0.0000 </r>
       <r>    0.3790    0.0000 </r>
       <r>    2.2563    0.0000 </r>
       <r>    2.8024    0.0000 </r>
      </set>
      <set comment="kpoint 48">
       <r>  -16.1870    1.0000 </r>
       <r>  -13.9385    1.0000 </r>
       <r>  -12.1417    1.0000 </r>
       <r>   -9.1080    1.0000 </r>
       <r>   -7.9093    1.0000 </r>
       <r>   -7.2639    1.0000 </r>
       <r>   -5.5589    1.0000 </r>
       <r>   -5.5227    1.0000 </r>
       <r>   -4.0232    1.0000 </r>
       <r>   -3.1099    1.0000 </r>
       <r>   -0.7251    0.0000 </r>
       <r>   -0.3671    0.0000 </r>
       <r>    0.2927    0.0000 </r>
       <r>    0.9693    0.0000 </r>
       <r>    2.5600    0.0000 </r>
       <r>    3.0725    0.0000 </r>
      </set>
      <set comment="kpoint 49">
       <r>  -16.4727    1.0000 </r>
       <r>  -14.2202    1.0000 </r>
       <r>  -11.8604    1.0000 </r>
       <r>   -8.6388    1.0000 </r>
       <r>   -7.7174    1.0000 </r>
       <r>   -7.2485    1.0000 </r>
       <r>   -5.7255    1.0000 </r>
       <r>   -5.5628    1.0000 </r>
       <r>   -3.8318    1.0000 </r>
[...]
       <r>    3.3247    0.0000 </r>
       <r>    3.3797    0.0000 </r>
      </set>
      <set comment="kpoint 153">
       <r>  -15.3543    1.0000 </r>
       <r>  -15.1090    1.0000 </r>
       <r>  -10.9377    1.0000 </r>
       <r>  -10.6180    1.0000 </r>
       <r>   -7.9396    1.0000 </r>
       <r>   -7.7835    1.0000 </r>
       <r>   -5.2828    1.0000 </r>
       <r>   -5.0636    1.0000 </r>
       <r>   -3.8622    1.0000 </r>
       <r>   -3.7765    1.0000 </r>
       <r>    0.2417    0.0000 </r>
       <r>    0.6281    0.0000 </r>
       <r>    1.0837    0.0000 </r>
       <r>    1.3778    0.0000 </r>
       <r>    3.2829    0.0000 </r>
       <r>    3.3383    0.0000 </r>
      </set>
      <set comment="kpoint 154">
       <r>  -15.6224    1.0000 </r>
       <r>  -15.3722    1.0000 </r>
       <r>  -10.7782    1.0000 </r>
       <r>  -10.4502    1.0000 </r>
       <r>   -7.6259    1.0000 </r>
       <r>   -7.4665    1.0000 </r>
       <r>   -5.1554    1.0000 </r>
       <r>   -4.8816    1.0000 </r>
       <r>   -3.7728    1.0000 </r>
       <r>   -3.7430    1.0000 </r>
       <r>    0.2545    0.0000 </r>
       <r>    0.5523    0.0000 </r>
       <r>    1.1883    0.0000 </r>
       <r>    1.5224    0.0000 </r>
       <r>    2.9833    0.0000 </r>
       <r>    3.2355    0.0000 </r>
      </set>
      <set comment="kpoint 155">
       <r>  -15.8476    1.0000 </r>
       <r>  -15.5947    1.0000 </r>
       <r>  -10.7318    1.0000 </r>
       <r>  -10.4060    1.0000 </r>
       <r>   -7.1185    1.0000 </r>
       <r>   -6.9479    1.0000 </r>
       <r>   -5.1660    1.0000 </r>
       <r>   -4.8511    1.0000 </r>
       <r>   -3.6911    1.0000 </r>
       <r>   -3.5341    1.0000 </r>
       <r>    0.3577    0.0000 </r>
       <r>    0.5405    0.0000 </r>
       <r>    1.1986    0.0000 </r>
       <r>    1.5608    0.0000 </r>
       <r>    2.3678    0.0000 </r>
       <r>    2.6088    0.0000 </r>
      </set>
      <set comment="kpoint 156">
       <r>  -16.0258    1.0000 </r>
       <r>  -15.7713    1.0000 </r>
       <r>  -10.7477    1.0000 </r>
       <r>  -10.4272    1.0000 </r>
       <r>   -6.4906    1.0000 </r>
       <r>   -6.3085    1.0000 </r>
       <r>   -5.2292    1.0000 </r>
       <r>   -4.8958    1.0000 </r>
       <r>   -3.6233    1.0000 </r>
       <r>   -3.3501    1.0000 </r>
       <r>    0.4961    0.0000 </r>
       <r>    0.5567    0.0000 </r>
       <r>    1.1194    0.0000 </r>
       <r>    1.4326    0.0000 </r>
       <r>    1.7543    0.0000 </r>
       <r>    1.8667    0.0000 </r>
      </set>
      <set comment="kpoint 157">
       <r>  -16.1544    1.0000 </r>
       <r>  -15.8992    1.0000 </r>
       <r>  -10.7828    1.0000 </r>
       <r>  -10.4668    1.0000 </r>
       <r>   -5.8241    1.0000 </r>
       <r>   -5.6408    1.0000 </r>
       <r>   -5.2893    1.0000 </r>
       <r>   -4.9536    1.0000 </r>
       <r>   -3.6393    1.0000 </r>
       <r>   -3.2666    1.0000 </r>
       <r>    0.3452    0.0000 </r>
       <r>    0.3559    0.0000 </r>
       <r>    1.0798    0.0000 </r>
       <r>    1.1540    0.0000 </r>
       <r>    1.4785    0.0000 </r>
       <r>    1.5896    0.0000 </r>
      </set>
      <set comment="kpoint 158">
       <r>  -16.2321    1.0000 </r>
       <r>  -15.9764    1.0000 </r>
       <r>  -10.8119    1.0000 </r>
       <r>  -10.4987    1.0000 </r>
       <r>   -5.3543    1.0000 </r>
       <r>   -5.2297    1.0000 </r>
       <r>   -5.0352    1.0000 </r>
       <r>   -4.9956    1.0000 </r>
       <r>   -3.7585    1.0000 </r>
       <r>   -3.3053    1.0000 </r>
       <r>   -0.0864    0.0000 </r>
       <r>   -0.0502    0.0000 </r>
       <r>    1.1617    0.0000 </r>
       <r>    1.1892    0.0000 </r>
       <r>    1.4358    0.0000 </r>
       <r>    1.5315    0.0000 </r>
      </set>
     </set>
    </set>
   </array>
  </eigenvalues>
  <separator name="orbital magnetization" >
   <v name="MAGDIPOLOUT">      0.00000000      0.00000000      0.00000000</v>
  </separator>
  <dos>
   <i name="efermi">     -2.21321046 </i>
   <total>
    <array>
     <dimension dim="1">gridpoints</dimension>
     <dimension dim="2">spin</dimension>
     <field>energy</field>
     <field>total</field>
     <field>integrated</field>
     <set>
      <set comment="spin 1">
       <r>   -18.2592     0.0000     0.0000 </r>
       <r>   -18.1829     0.0000     0.0000 </r>
       <r>   -18.1065     0.0000     0.0000 </r>
       <r>   -18.0301     0.0000     0.0000 </r>
       <r>   -17.9538     0.0000     0.0000 </r>
       <r>   -17.8774     0.0000     0.0000 </r>
       <r>   -17.8010     0.0000     0.0000 </r>
       <r>   -17.7247     0.0000     0.0000 </r>
       <r>   -17.6483     0.0000     0.0000 </r>
       <r>   -17.5719     0.0000     0.0000 </r>
       <r>   -17.4956     0.0000     0.0000 </r>
       <r>   -17.4192     0.0000     0.0000 </r>
       <r>   -17.3428     0.0000     0.0000 </r>
       <r>   -17.2665     0.0000     0.0000 </r>
       <r>   -17.1901     0.3073     0.0235 </r>
       <r>   -17.1138     0.7816     0.0832 </r>
       <r>   -17.0374     0.7820     0.1429 </r>
       <r>   -16.9610     0.9783     0.2176 </r>
       <r>   -16.8847     0.9086     0.2870 </r>
       <r>   -16.8083     0.5476     0.3288 </r>
       <r>   -16.7319     1.1213     0.4144 </r>
       <r>   -16.6556     0.9012     0.4832 </r>
       <r>   -16.5792     0.8852     0.5508 </r>
       <r>   -16.5028     0.5789     0.5950 </r>
       <r>   -16.4265     1.4373     0.7048 </r>
       <r>   -16.3501     0.6430     0.7539 </r>
       <r>   -16.2737     0.4621     0.7892 </r>
       <r>   -16.1974     1.6282     0.9135 </r>
       <r>   -16.1210     0.5931     0.9588 </r>
       <r>   -16.0447     0.9725     1.0331 </r>
       <r>   -15.9683     0.8020     1.0943 </r>
       <r>   -15.8919     1.0941     1.1779 </r>
       <r>   -15.8156     1.1180     1.2632 </r>
       <r>   -15.7392     1.0575     1.3440 </r>
       <r>   -15.6628     0.4538     1.3787 </r>
       <r>   -15.5865     1.3368     1.4807 </r>
       <r>   -15.5101     0.9499     1.5533 </r>
       <r>   -15.4337     1.3284     1.6547 </r>
       <r>   -15.3574     1.0961     1.7384 </r>
       <r>   -15.2810     0.6913     1.7912 </r>
       <r>   -15.2047     1.3389     1.8935 </r>
       <r>   -15.1283     0.5379     1.9345 </r>
       <r>   -15.0519     2.1116     2.0958 </r>
       <r>   -14.9756     1.2634     2.1923 </r>
       <r>   -14.8992     0.8566     2.2577 </r>
       <r>   -14.8228     1.8007     2.3952 </r>
       <r>   -14.7465     1.6647     2.5223 </r>
       <r>   -14.6701     1.2258     2.6159 </r>
       <r>   -14.5937     1.9526     2.7650 </r>
       <r>   -14.5174     1.7174     2.8962 </r>
       <r>   -14.4410     0.9200     2.9664 </r>
       <r>   -14.3646     0.9644     3.0401 </r>
       <r>   -14.2883     1.4313     3.1494 </r>
       <r>   -14.2119     1.0673     3.2309 </r>
       <r>   -14.1356     1.3132     3.3311 </r>
       <r>   -14.0592     2.8534     3.5490 </r>
       <r>   -13.9828     0.5851     3.5937 </r>
       <r>   -13.9065     0.6585     3.6440 </r>
       <r>   -13.8301     0.8472     3.7087 </r>
       <r>   -13.7537     0.8349     3.7725 </r>
       <r>   -13.6774     0.8836     3.8399 </r>
       <r>   -13.6010     0.7645     3.8983 </r>
       <r>   -13.5246     0.0014     3.8984 </r>
       <r>   -13.4483     0.6179     3.9456 </r>
       <r>   -13.3719     0.2128     3.9619 </r>
       <r>   -13.2955     0.1386     3.9724 </r>
       <r>   -13.2192     0.1957     3.9874 </r>
       <r>   -13.1428     0.1649     4.0000 </r>
       <r>   -13.0665     0.0003     4.0000 </r>
       <r>   -12.9901     0.1191     4.0091 </r>
       <r>   -12.9137     0.0594     4.0136 </r>
       <r>   -12.8374     0.3204     4.0381 </r>
       <r>   -12.7610     0.0002     4.0381 </r>
       <r>   -12.6846     0.4859     4.0752 </r>
       <r>   -12.6083     0.3433     4.1014 </r>
       <r>   -12.5319     0.2876     4.1234 </r>
       <r>   -12.4555     1.3096     4.2234 </r>
       <r>   -12.3792     0.2958     4.2460 </r>
       <r>   -12.3028     0.5391     4.2872 </r>
       <r>   -12.2265     1.2050     4.3792 </r>
       <r>   -12.1501     0.4360     4.4125 </r>
       <r>   -12.0737     2.1045     4.5732 </r>
       <r>   -11.9974     1.6469     4.6989 </r>
       <r>   -11.9210     1.2441     4.7939 </r>
       <r>   -11.8446     0.6513     4.8437 </r>
       <r>   -11.7683     0.9958     4.9197 </r>
       <r>   -11.6919     1.6479     5.0456 </r>
       <r>   -11.6155     0.5384     5.0867 </r>
       <r>   -11.5392     2.3742     5.2680 </r>
       <r>   -11.4628     4.5231     5.6134 </r>
       <r>   -11.3864     1.5179     5.7293 </r>
       <r>   -11.3101     1.1795     5.8194 </r>
       <r>   -11.2337     1.6287     5.9437 </r>
       <r>   -11.1574     0.8889     6.0116 </r>
       <r>   -11.0810     0.4212     6.0438 </r>
       <r>   -11.0046     1.9631     6.1937 </r>
       <r>   -10.9283     0.8434     6.2581 </r>
       <r>   -10.8519     0.8299     6.3215 </r>
       <r>   -10.7755     1.2084     6.4138 </r>
       <r>   -10.6992     0.8971     6.4823 </r>
       <r>   -10.6228     0.6346     6.5307 </r>
       <r>   -10.5464     0.3678     6.5588 </r>
       <r>   -10.4701     0.7218     6.6139 </r>
       <r>   -10.3937     1.3725     6.7187 </r>
       <r>   -10.3174     0.6772     6.7704 </r>
       <r>   -10.2410     0.6828     6.8226 </r>
       <r>   -10.1646     0.2363     6.8406 </r>
       <r>   -10.0883     1.2107     6.9331 </r>
       <r>   -10.0119     0.9139     7.0029 </r>
       <r>    -9.9355     0.3066     7.0263 </r>
       <r>    -9.8592     0.3010     7.0493 </r>
       <r>    -9.7828     0.0631     7.0541 </r>
       <r>    -9.7064     1.0872     7.1371 </r>
       <r>    -9.6301     1.2680     7.2339 </r>
       <r>    -9.5537     0.5953     7.2794 </r>
       <r>    -9.4773     0.0411     7.2825 </r>
       <r>    -9.4010     0.0000     7.2825 </r>
       <r>    -9.3246     0.7262     7.3380 </r>
       <r>    -9.2483     1.0011     7.4144 </r>
       <r>    -9.1719     0.4344     7.4476 </r>
       <r>    -9.0955     0.2696     7.4682 </r>
       <r>    -9.0192     0.0636     7.4731 </r>
       <r>    -8.9428     0.5490     7.5150 </r>
       <r>    -8.8664     0.5979     7.5606 </r>
       <r>    -8.7901     1.1458     7.6481 </r>
       <r>    -8.7137     0.0347     7.6508 </r>
       <r>    -8.6373     0.1799     7.6645 </r>
       <r>    -8.5610     0.1527     7.6762 </r>
       <r>    -8.4846     0.0027     7.6764 </r>
       <r>    -8.4082     0.8878     7.7442 </r>
       <r>    -8.3319     0.9359     7.8157 </r>
       <r>    -8.2555     0.0491     7.8194 </r>
       <r>    -8.1792     0.3475     7.8459 </r>
       <r>    -8.1028     1.2486     7.9413 </r>
       <r>    -8.0264     2.9998     8.1704 </r>
       <r>    -7.9501     1.5397     8.2879 </r>
       <r>    -7.8737     1.5850     8.4090 </r>
       <r>    -7.7973     2.8929     8.6299 </r>
       <r>    -7.7210     2.5585     8.8253 </r>
       <r>    -7.6446     1.6707     8.9529 </r>
       <r>    -7.5682     1.4588     9.0643 </r>
       <r>    -7.4919     2.1151     9.2258 </r>
       <r>    -7.4155     2.3533     9.4055 </r>
       <r>    -7.3392     2.1229     9.5676 </r>
       <r>    -7.2628     3.5969     9.8423 </r>
       <r>    -7.1864     3.3790    10.1003 </r>
       <r>    -7.1101     3.5139    10.3686 </r>
       <r>    -7.0337     2.9772    10.5960 </r>
       <r>    -6.9573     0.8433    10.6604 </r>
       <r>    -6.8810     1.4961    10.7746 </r>
       <r>    -6.8046     1.2578    10.8707 </r>
       <r>    -6.7282     1.3618    10.9747 </r>
       <r>    -6.6519     2.5824    11.1719 </r>
       <r>    -6.5755     0.9798    11.2467 </r>
       <r>    -6.4991     1.0259    11.3251 </r>
       <r>    -6.4228     2.6911    11.5306 </r>
       <r>    -6.3464     0.9028    11.5995 </r>
       <r>    -6.2701     1.1111    11.6844 </r>
       <r>    -6.1937     2.1601    11.8493 </r>
       <r>    -6.1173     2.6313    12.0503 </r>
       <r>    -6.0410     0.8149    12.1125 </r>
       <r>    -5.9646     2.0226    12.2669 </r>
       <r>    -5.8882     1.1838    12.3573 </r>
       <r>    -5.8119     2.4324    12.5431 </r>
       <r>    -5.7355     2.1387    12.7064 </r>
       <r>    -5.6591     3.1415    12.9463 </r>
       <r>    -5.5828     4.3068    13.2752 </r>
       <r>    -5.5064     3.6303    13.5524 </r>
       <r>    -5.4300     3.0172    13.7828 </r>
       <r>    -5.3537     4.6462    14.1376 </r>
       <r>    -5.2773     2.3283    14.3154 </r>
       <r>    -5.2010     4.1492    14.6323 </r>
       <r>    -5.1246     2.6500    14.8346 </r>
       <r>    -5.0482     1.8809    14.9783 </r>
       <r>    -4.9719     2.1041    15.1390 </r>
       <r>    -4.8955     1.8012    15.2765 </r>
       <r>    -4.8191     1.7700    15.4117 </r>
       <r>    -4.7428     1.1337    15.4982 </r>
       <r>    -4.6664     0.7426    15.5550 </r>
       <r>    -4.5900     1.7642    15.6897 </r>
       <r>    -4.5137     1.8691    15.8324 </r>
       <r>    -4.4373     0.3211    15.8569 </r>
       <r>    -4.3610     0.6372    15.9056 </r>
       <r>    -4.2846     1.3766    16.0107 </r>
       <r>    -4.2082     1.5446    16.1287 </r>
       <r>    -4.1319     3.0733    16.3633 </r>
       <r>    -4.0555     2.2152    16.5325 </r>
       <r>    -3.9791     2.9667    16.7591 </r>
       <r>    -3.9028     1.9504    16.9080 </r>
       <r>    -3.8264     3.3459    17.1635 </r>
       <r>    -3.7500     5.8138    17.6075 </r>
       <r>    -3.6737     2.9321    17.8314 </r>
       <r>    -3.5973     2.9825    18.0591 </r>
       <r>    -3.5209     3.2663    18.3086 </r>
       <r>    -3.4446     3.5110    18.5767 </r>
       <r>    -3.3682     3.3033    18.8289 </r>
       <r>    -3.2919     3.8468    19.1227 </r>
       <r>    -3.2155     2.7582    19.3333 </r>
       <r>    -3.1391     0.8383    19.3973 </r>
       <r>    -3.0628     0.6663    19.4482 </r>
       <r>    -2.9864     1.1648    19.5372 </r>
       <r>    -2.9100     1.3644    19.6413 </r>
       <r>    -2.8337     1.9368    19.7892 </r>
       <r>    -2.7573     0.1788    19.8029 </r>
       <r>    -2.6809     0.2120    19.8191 </r>
       <r>    -2.6046     0.3984    19.8495 </r>
       <r>    -2.5282     0.3382    19.8753 </r>
       <r>    -2.4518     1.0502    19.9555 </r>
       <r>    -2.3755     0.1355    19.9659 </r>
       <r>    -2.2991     0.3696    19.9941 </r>
       <r>    -2.2228     0.0772    20.0000 </r>
       <r>    -2.1464     0.0000    20.0000 </r>
       <r>    -2.0700     0.0000    20.0000 </r>
       <r>    -1.9937     0.0000    20.0000 </r>
       <r>    -1.9173     0.0000    20.0000 </r>
       <r>    -1.8409     0.0000    20.0000 </r>
       <r>    -1.7646     0.0000    20.0000 </r>
       <r>    -1.6882     0.0000    20.0000 </r>
       <r>    -1.6118     0.0000    20.0000 </r>
       <r>    -1.5355     0.0000    20.0000 </r>
       <r>    -1.4591     0.0000    20.0000 </r>
       <r>    -1.3828     0.0154    20.0012 </r>
       <r>    -1.3064     0.2343    20.0191 </r>
       <r>    -1.2300     0.1658    20.0317 </r>
       <r>    -1.1537     0.5401    20.0730 </r>
       <r>    -1.0773     1.4492    20.1836 </r>
       <r>    -1.0009     2.2041    20.3520 </r>
       <r>    -0.9246     1.4266    20.4609 </r>
       <r>    -0.8482     1.7579    20.5951 </r>
       <r>    -0.7718     1.8415    20.7358 </r>
       <r>    -0.6955     2.1430    20.8994 </r>
       <r>    -0.6191     2.0681    21.0573 </r>
       <r>    -0.5427     1.6206    21.1811 </r>
       <r>    -0.4664     2.2330    21.3516 </r>
       <r>    -0.3900     3.9552    21.6537 </r>
       <r>    -0.3137     1.9400    21.8018 </r>
       <r>    -0.2373     3.1666    22.0436 </r>
       <r>    -0.1609     1.3268    22.1449 </r>
       <r>    -0.0846     3.7348    22.4301 </r>
       <r>    -0.0082     3.2726    22.6800 </r>
       <r>     0.0682     3.2390    22.9274 </r>
       <r>     0.1445     2.8757    23.1470 </r>
       <r>     0.2209     2.7084    23.3538 </r>
       <r>     0.2973     4.2421    23.6778 </r>
       <r>     0.3736     4.6320    24.0315 </r>
       <r>     0.4500     5.6750    24.4648 </r>
       <r>     0.5264     3.8143    24.7561 </r>
       <r>     0.6027     3.4621    25.0205 </r>
       <r>     0.6791     3.0405    25.2527 </r>
       <r>     0.7554     3.3570    25.5090 </r>
       <r>     0.8318     5.3426    25.9170 </r>
       <r>     0.9082     2.6546    26.1197 </r>
       <r>     0.9845     3.3966    26.3791 </r>
       <r>     1.0609     1.8389    26.5195 </r>
       <r>     1.1373     3.1128    26.7572 </r>
       <r>     1.2136     3.5579    27.0289 </r>
       <r>     1.2900     1.7785    27.1648 </r>
       <r>     1.3664     2.8077    27.3792 </r>
       <r>     1.4427     2.3713    27.5602 </r>
       <r>     1.5191     2.2589    27.7327 </r>
       <r>     1.5954     1.7191    27.8640 </r>
       <r>     1.6718     2.5643    28.0598 </r>
       <r>     1.7482     2.0333    28.2151 </r>
       <r>     1.8245     2.8386    28.4319 </r>
       <r>     1.9009     3.0041    28.6613 </r>
       <r>     1.9773     1.5695    28.7811 </r>
       <r>     2.0536     1.3008    28.8805 </r>
       <r>     2.1300     3.1980    29.1247 </r>
       <r>     2.2064     1.9848    29.2762 </r>
       <r>     2.2827     2.5683    29.4724 </r>
       <r>     2.3591     3.1248    29.7110 </r>
       <r>     2.4355     2.4729    29.8998 </r>
       <r>     2.5118     2.2191    30.0693 </r>
       <r>     2.5882     3.5408    30.3397 </r>
       <r>     2.6645     4.1048    30.6531 </r>
       <r>     2.7409     2.8325    30.8694 </r>
       <r>     2.8173     1.6719    30.9971 </r>
       <r>     2.8936     1.6488    31.1230 </r>
       <r>     2.9700     2.1927    31.2905 </r>
       <r>     3.0464     1.8102    31.4287 </r>
       <r>     3.1227     1.5297    31.5455 </r>
       <r>     3.1991     0.6685    31.5966 </r>
       <r>     3.2755     2.6882    31.8018 </r>
       <r>     3.3518     0.8768    31.8688 </r>
       <r>     3.4282     1.0374    31.9480 </r>
       <r>     3.5046     0.3475    31.9746 </r>
       <r>     3.5809     0.0089    31.9752 </r>
       <r>     3.6573     0.3242    32.0000 </r>
       <r>     3.7336     0.0001    32.0000 </r>
       <r>     3.8100     0.0000    32.0000 </r>
       <r>     3.8864     0.0000    32.0000 </r>
       <r>     3.9627     0.0000    32.0000 </r>
       <r>     4.0391     0.0000    32.0000 </r>
       <r>     4.1155     0.0000    32.0000 </r>
       <r>     4.1918     0.0000    32.0000 </r>
       <r>     4.2682     0.0000    32.0000 </r>
       <r>     4.3446     0.0000    32.0000 </r>
       <r>     4.4209     0.0000    32.0000 </r>
       <r>     4.4973     0.0000    32.0000 </r>
       <r>     4.5736     0.0000    32.0000 </r>
       <r>     4.6500     0.0000    32.0000 </r>
      </set>
     </set>
    </array>
   </total>
  </dos>
 </calculation>
 <structure name="finalpos" >
  <crystal>
   <varray name="basis" >
    <v>       3.30954500       0.00000000       0.00000000 </v>
    <v>       0.00000000       4.64065600      -0.00005300 </v>
    <v>       0.00000000       0.00000000      20.02439000 </v>
   </varray>
   <i name="volume">    307.54379007 </i>
   <varray name="rec_basis" >
    <v>       0.30215634       0.00000000       0.00000000 </v>
    <v>       0.00000000       0.21548678       0.00000000 </v>
    <v>       0.00000000       0.00000057       0.04993910 </v>
   </varray>
  </crystal>
  <varray name="positions" >
   <v>       0.50000000       0.91007177       0.55245027 </v>
   <v>       0.50000000       0.08992823       0.44754973 </v>
   <v>      -0.00000000       0.41006727       0.44754973 </v>
   <v>       0.00000000       0.58993273       0.55245027 </v>
  </varray>
 </structure>
</modeling>
