<?xml version="1.0" encoding="ISO-8859-1"?>
<modeling>
 <generator>
  <i name="program" type="string">vasp </i>
  <i name="version" type="string">5.4.1  </i>
  <i name="subversion" type="string">24Jun15 (build Nov 20 2020 10:29:34) complex                          parallel </i>
  <i name="platform" type="string">IFC91_ompi </i>
  <i name="date" type="string">2021 09 09 </i>
  <i name="time" type="string">13:45:15 </i>
 </generator>
 <incar>
  <i type="string" name="PREC">a</i>
  <i type="string" name="ALGO"> Normal</i>
  <i type="int" name="ISPIN">     1</i>
  <i type="int" name="ICHARG">     2</i>
  <i type="int" name="NELM">   250</i>
  <i type="int" name="NELMDL">    -5</i>
  <i type="int" name="NELMIN">     6</i>
  <i type="int" name="IBRION">     2</i>
  <i name="EDIFF">      0.00001000</i>
  <i name="EDIFFG">     -0.01000000</i>
  <i type="int" name="NSW">   200</i>
  <i type="int" name="ISIF">     2</i>
  <i name="ENCUT">    520.00000000</i>
  <i name="POTIM">      0.30000000</i>
  <i type="logical" name="LREAL"> F  </i>
  <i type="int" name="ISMEAR">     0</i>
  <i name="SIGMA">      0.02000000</i>
  <i type="logical" name="LWAVE"> F  </i>
  <i type="logical" name="LCHARG"> F  </i>
  <i type="logical" name="LAECHG"> F  </i>
  <v type="int" name="KPOINT_BSE">    -1     0     0     0</v>
  <i type="int" name="NELM">   250</i>
 </incar>
 <kpoints>
  <generation param="Gamma">
   <v type="int" name="divisions">      22       15        1 </v>
   <v name="usershift">      0.00000000       0.00000000       0.00000000 </v>
   <v name="genvec1">      0.04545455       0.00000000       0.00000000 </v>
   <v name="genvec2">      0.00000000       0.06666667       0.00000000 </v>
   <v name="genvec3">      0.00000000       0.00000000       1.00000000 </v>
   <v name="shift">      0.00000000       0.00000000       0.00000000 </v>
  </generation>
  <varray name="kpointlist" >
   <v>       0.00000000       0.00000000       0.00000000 </v>
   <v>       0.04545455       0.00000000       0.00000000 </v>
   <v>       0.09090909       0.00000000       0.00000000 </v>
   <v>       0.13636364       0.00000000       0.00000000 </v>
   <v>       0.18181818       0.00000000       0.00000000 </v>
   <v>       0.22727273       0.00000000       0.00000000 </v>
   <v>       0.27272727       0.00000000       0.00000000 </v>
   <v>       0.31818182       0.00000000       0.00000000 </v>
   <v>       0.36363636       0.00000000       0.00000000 </v>
   <v>       0.40909091       0.00000000       0.00000000 </v>
   <v>       0.45454545       0.00000000       0.00000000 </v>
   <v>       0.50000000       0.00000000       0.00000000 </v>
   <v>       0.00000000       0.06666667       0.00000000 </v>
   <v>       0.04545455       0.06666667       0.00000000 </v>
   <v>       0.09090909       0.06666667       0.00000000 </v>
   <v>       0.13636364       0.06666667       0.00000000 </v>
   <v>       0.18181818       0.06666667       0.00000000 </v>
   <v>       0.22727273       0.06666667       0.00000000 </v>
   <v>       0.27272727       0.06666667       0.00000000 </v>
   <v>       0.31818182       0.06666667       0.00000000 </v>
   <v>       0.36363636       0.06666667       0.00000000 </v>
   <v>       0.40909091       0.06666667       0.00000000 </v>
   <v>       0.45454545       0.06666667       0.00000000 </v>
   <v>       0.50000000       0.06666667       0.00000000 </v>
   <v>      -0.45454545       0.06666667       0.00000000 </v>
   <v>      -0.40909091       0.06666667       0.00000000 </v>
   <v>      -0.36363636       0.06666667       0.00000000 </v>
   <v>      -0.31818182       0.06666667       0.00000000 </v>
   <v>      -0.27272727       0.06666667       0.00000000 </v>
   <v>      -0.22727273       0.06666667       0.00000000 </v>
   <v>      -0.18181818       0.06666667       0.00000000 </v>
   <v>      -0.13636364       0.06666667       0.00000000 </v>
   <v>      -0.09090909       0.06666667       0.00000000 </v>
   <v>      -0.04545455       0.06666667       0.00000000 </v>
   <v>       0.00000000       0.13333333       0.00000000 </v>
   <v>       0.04545455       0.13333333       0.00000000 </v>
   <v>       0.09090909       0.13333333       0.00000000 </v>
   <v>       0.13636364       0.13333333       0.00000000 </v>
   <v>       0.18181818       0.13333333       0.00000000 </v>
   <v>       0.22727273       0.13333333       0.00000000 </v>
   <v>       0.27272727       0.13333333       0.00000000 </v>
   <v>       0.31818182       0.13333333       0.00000000 </v>
   <v>       0.36363636       0.13333333       0.00000000 </v>
   <v>       0.40909091       0.13333333       0.00000000 </v>
   <v>       0.45454545       0.13333333       0.00000000 </v>
   <v>       0.50000000       0.13333333       0.00000000 </v>
   <v>      -0.45454545       0.13333333       0.00000000 </v>
   <v>      -0.40909091       0.13333333       0.00000000 </v>
   <v>      -0.36363636       0.13333333       0.00000000 </v>
   <v>      -0.31818182       0.13333333       0.00000000 </v>
   <v>      -0.27272727       0.13333333       0.00000000 </v>
   <v>      -0.22727273       0.13333333       0.00000000 </v>
   <v>      -0.18181818       0.13333333       0.00000000 </v>
   <v>      -0.13636364       0.13333333       0.00000000 </v>
   <v>      -0.09090909       0.13333333       0.00000000 </v>
   <v>      -0.04545455       0.13333333       0.00000000 </v>
   <v>       0.00000000       0.20000000       0.00000000 </v>
   <v>       0.04545455       0.20000000       0.00000000 </v>
   <v>       0.09090909       0.20000000       0.00000000 </v>
   <v>       0.13636364       0.20000000       0.00000000 </v>
   <v>       0.18181818       0.20000000       0.00000000 </v>
   <v>       0.22727273       0.20000000       0.00000000 </v>
   <v>       0.27272727       0.20000000       0.00000000 </v>
   <v>       0.31818182       0.20000000       0.00000000 </v>
   <v>       0.36363636       0.20000000       0.00000000 </v>
   <v>       0.40909091       0.20000000       0.00000000 </v>
   <v>       0.45454545       0.20000000       0.00000000 </v>
   <v>       0.50000000       0.20000000       0.00000000 </v>
   <v>      -0.45454545       0.20000000       0.00000000 </v>
   <v>      -0.40909091       0.20000000       0.00000000 </v>
   <v>      -0.36363636       0.20000000       0.00000000 </v>
   <v>      -0.31818182       0.20000000       0.00000000 </v>
   <v>      -0.27272727       0.20000000       0.00000000 </v>
   <v>      -0.22727273       0.20000000       0.00000000 </v>
   <v>      -0.18181818       0.20000000       0.00000000 </v>
   <v>      -0.13636364       0.20000000       0.00000000 </v>
   <v>      -0.09090909       0.20000000       0.00000000 </v>
   <v>      -0.04545455       0.20000000       0.00000000 </v>
   <v>       0.00000000       0.26666667       0.00000000 </v>
   <v>       0.04545455       0.26666667       0.00000000 </v>
   <v>       0.09090909       0.26666667       0.00000000 </v>
   <v>       0.13636364       0.26666667       0.00000000 </v>
   <v>       0.18181818       0.26666667       0.00000000 </v>
   <v>       0.22727273       0.26666667       0.00000000 </v>
   <v>       0.27272727       0.26666667       0.00000000 </v>
   <v>       0.31818182       0.26666667       0.00000000 </v>
   <v>       0.36363636       0.26666667       0.00000000 </v>
   <v>       0.40909091       0.26666667       0.00000000 </v>
   <v>       0.45454545       0.26666667       0.00000000 </v>
   <v>       0.50000000       0.26666667       0.00000000 </v>
   <v>      -0.45454545       0.26666667       0.00000000 </v>
   <v>      -0.40909091       0.26666667       0.00000000 </v>
   <v>      -0.36363636       0.26666667       0.00000000 </v>
   <v>      -0.31818182       0.26666667       0.00000000 </v>
   <v>      -0.27272727       0.26666667       0.00000000 </v>
   <v>      -0.22727273       0.26666667       0.00000000 </v>
   <v>      -0.18181818       0.26666667       0.00000000 </v>
   <v>      -0.13636364       0.26666667       0.00000000 </v>
   <v>      -0.09090909       0.26666667       0.00000000 </v>
   <v>      -0.04545455       0.26666667       0.00000000 </v>
   <v>       0.00000000       0.33333333       0.00000000 </v>
   <v>       0.04545455       0.33333333       0.00000000 </v>
   <v>       0.09090909       0.33333333       0.00000000 </v>
   <v>       0.13636364       0.33333333       0.00000000 </v>
   <v>       0.18181818       0.33333333       0.00000000 </v>
   <v>       0.22727273       0.33333333       0.00000000 </v>
   <v>       0.27272727       0.33333333       0.00000000 </v>
   <v>       0.31818182       0.33333333       0.00000000 </v>
   <v>       0.36363636       0.33333333       0.00000000 </v>
   <v>       0.40909091       0.33333333       0.00000000 </v>
   <v>       0.45454545       0.33333333       0.00000000 </v>
   <v>       0.50000000       0.33333333       0.00000000 </v>
   <v>      -0.45454545       0.33333333       0.00000000 </v>
   <v>      -0.40909091       0.33333333       0.00000000 </v>
   <v>      -0.36363636       0.33333333       0.00000000 </v>
   <v>      -0.31818182       0.33333333       0.00000000 </v>
   <v>      -0.27272727       0.33333333       0.00000000 </v>
   <v>      -0.22727273       0.33333333       0.00000000 </v>
   <v>      -0.18181818       0.33333333       0.00000000 </v>
   <v>      -0.13636364       0.33333333       0.00000000 </v>
   <v>      -0.09090909       0.33333333       0.00000000 </v>
   <v>      -0.04545455       0.33333333       0.00000000 </v>
   <v>       0.00000000       0.40000000       0.00000000 </v>
   <v>       0.04545455       0.40000000       0.00000000 </v>
   <v>       0.09090909       0.40000000       0.00000000 </v>
   <v>       0.13636364       0.40000000       0.00000000 </v>
   <v>       0.18181818       0.40000000       0.00000000 </v>
   <v>       0.22727273       0.40000000       0.00000000 </v>
   <v>       0.27272727       0.40000000       0.00000000 </v>
   <v>       0.31818182       0.40000000       0.00000000 </v>
   <v>       0.36363636       0.40000000       0.00000000 </v>
   <v>       0.40909091       0.40000000       0.00000000 </v>
   <v>       0.45454545       0.40000000       0.00000000 </v>
   <v>       0.50000000       0.40000000       0.00000000 </v>
   <v>      -0.45454545       0.40000000       0.00000000 </v>
   <v>      -0.40909091       0.40000000       0.00000000 </v>
   <v>      -0.36363636       0.40000000       0.00000000 </v>
   <v>      -0.31818182       0.40000000       0.00000000 </v>
   <v>      -0.27272727       0.40000000       0.00000000 </v>
   <v>      -0.22727273       0.40000000       0.00000000 </v>
   <v>      -0.18181818       0.40000000       0.00000000 </v>
   <v>      -0.13636364       0.40000000       0.00000000 </v>
   <v>      -0.09090909       0.40000000       0.00000000 </v>
   <v>      -0.04545455       0.40000000       0.00000000 </v>
   <v>       0.00000000       0.46666667       0.00000000 </v>
   <v>       0.04545455       0.46666667       0.00000000 </v>
   <v>       0.09090909       0.46666667       0.00000000 </v>
   <v>       0.13636364       0.46666667       0.00000000 </v>
   <v>       0.18181818       0.46666667       0.00000000 </v>
   <v>       0.22727273       0.46666667       0.00000000 </v>
   <v>       0.27272727       0.46666667       0.00000000 </v>
   <v>       0.31818182       0.46666667       0.00000000 </v>
   <v>       0.36363636       0.46666667       0.00000000 </v>
   <v>       0.40909091       0.46666667       0.00000000 </v>
   <v>       0.45454545       0.46666667       0.00000000 </v>
   <v>       0.50000000       0.46666667       0.00000000 </v>
   <v>      -0.45454545       0.46666667       0.00000000 </v>
   <v>      -0.40909091       0.46666667       0.00000000 </v>
   <v>      -0.36363636       0.46666667       0.00000000 </v>
   <v>      -0.31818182       0.46666667       0.00000000 </v>
   <v>      -0.27272727       0.46666667       0.00000000 </v>
   <v>      -0.22727273       0.46666667       0.00000000 </v>
   <v>      -0.18181818       0.46666667       0.00000000 </v>
   <v>      -0.13636364       0.46666667       0.00000000 </v>
   <v>      -0.09090909       0.46666667       0.00000000 </v>
   <v>      -0.04545455       0.46666667       0.00000000 </v>
  </varray>
  <varray name="weights" >
   <v>       0.00303030 </v>
   <v>       0.00606061 </v>
   <v>       0.00606061 </v>
   <v>       0.00606061 </v>
   <v>       0.00606061 </v>
   <v>       0.00606061 </v>
   <v>       0.00606061 </v>
   <v>       0.00606061 </v>
   <v>       0.00606061 </v>
   <v>       0.00606061 </v>
   <v>       0.00606061 </v>
   <v>       0.00303030 </v>
   <v>       0.00606061 </v>
   <v>       0.00606061 </v>
   <v>       0.00606061 </v>
   <v>       0.00606061 </v>
   <v>       0.00606061 </v>
   <v>       0.00606061 </v>
   <v>       0.00606061 </v>
   <v>       0.00606061 </v>
   <v>       0.00606061 </v>
   <v>       0.00606061 </v>
   <v>       0.00606061 </v>
   <v>       0.00606061 </v>
   <v>       0.00606061 </v>
   <v>       0.00606061 </v>
   <v>       0.00606061 </v>
   <v>       0.00606061 </v>
   <v>       0.00606061 </v>
   <v>       0.00606061 </v>
   <v>       0.00606061 </v>
   <v>       0.00606061 </v>
   <v>       0.00606061 </v>
   <v>       0.00606061 </v>
   <v>       0.00606061 </v>
   <v>       0.00606061 </v>
   <v>       0.00606061 </v>
   <v>       0.00606061 </v>
   <v>       0.00606061 </v>
   <v>       0.00606061 </v>
   <v>       0.00606061 </v>
   <v>       0.00606061 </v>
   <v>       0.00606061 </v>
   <v>       0.00606061 </v>
   <v>       0.00606061 </v>
   <v>       0.00606061 </v>
   <v>       0.00606061 </v>
   <v>       0.00606061 </v>
   <v>       0.00606061 </v>
   <v>       0.00606061 </v>
   <v>       0.00606061 </v>
   <v>       0.00606061 </v>
   <v>       0.00606061 </v>
   <v>       0.00606061 </v>
   <v>       0.00606061 </v>
   <v>       0.00606061 </v>
   <v>       0.00606061 </v>
   <v>       0.00606061 </v>
   <v>       0.00606061 </v>
   <v>       0.00606061 </v>
   <v>       0.00606061 </v>
   <v>       0.00606061 </v>
   <v>       0.00606061 </v>
   <v>       0.00606061 </v>
   <v>       0.00606061 </v>
   <v>       0.00606061 </v>
   <v>       0.00606061 </v>
   <v>       0.00606061 </v>
   <v>       0.00606061 </v>
   <v>       0.00606061 </v>
   <v>       0.00606061 </v>
   <v>       0.00606061 </v>
   <v>       0.00606061 </v>
   <v>       0.00606061 </v>
   <v>       0.00606061 </v>
   <v>       0.00606061 </v>
   <v>       0.00606061 </v>
   <v>       0.00606061 </v>
   <v>       0.00606061 </v>
   <v>       0.00606061 </v>
   <v>       0.00606061 </v>
   <v>       0.00606061 </v>
   <v>       0.00606061 </v>
   <v>       0.00606061 </v>
   <v>       0.00606061 </v>
   <v>       0.00606061 </v>
   <v>       0.00606061 </v>
   <v>       0.00606061 </v>
   <v>       0.00606061 </v>
   <v>       0.00606061 </v>
   <v>       0.00606061 </v>
   <v>       0.00606061 </v>
   <v>       0.00606061 </v>
   <v>       0.00606061 </v>
   <v>       0.00606061 </v>
   <v>       0.00606061 </v>
   <v>       0.00606061 </v>
   <v>       0.00606061 </v>
   <v>       0.00606061 </v>
   <v>       0.00606061 </v>
   <v>       0.00606061 </v>
   <v>       0.00606061 </v>
   <v>       0.00606061 </v>
   <v>       0.00606061 </v>
   <v>       0.00606061 </v>
   <v>       0.00606061 </v>
   <v>       0.00606061 </v>
   <v>       0.00606061 </v>
   <v>       0.00606061 </v>
   <v>       0.00606061 </v>
   <v>       0.00606061 </v>
   <v>       0.00606061 </v>
   <v>       0.00606061 </v>
   <v>       0.00606061 </v>
   <v>       0.00606061 </v>
   <v>       0.00606061 </v>
   <v>       0.00606061 </v>
   <v>       0.00606061 </v>
   <v>       0.00606061 </v>
   <v>       0.00606061 </v>
   <v>       0.00606061 </v>
   <v>       0.00606061 </v>
   <v>       0.00606061 </v>
   <v>       0.00606061 </v>
   <v>       0.00606061 </v>
   <v>       0.00606061 </v>
   <v>       0.00606061 </v>
   <v>       0.00606061 </v>
   <v>       0.00606061 </v>
   <v>       0.00606061 </v>
   <v>       0.00606061 </v>
   <v>       0.00606061 </v>
   <v>       0.00606061 </v>
   <v>       0.00606061 </v>
   <v>       0.00606061 </v>
   <v>       0.00606061 </v>
   <v>       0.00606061 </v>
   <v>       0.00606061 </v>
   <v>       0.00606061 </v>
   <v>       0.00606061 </v>
   <v>       0.00606061 </v>
   <v>       0.00606061 </v>
   <v>       0.00606061 </v>
   <v>       0.00606061 </v>
   <v>       0.00606061 </v>
   <v>       0.00606061 </v>
   <v>       0.00606061 </v>
   <v>       0.00606061 </v>
   <v>       0.00606061 </v>
   <v>       0.00606061 </v>
   <v>       0.00606061 </v>
   <v>       0.00606061 </v>
   <v>       0.00606061 </v>
   <v>       0.00606061 </v>
   <v>       0.00606061 </v>
   <v>       0.00606061 </v>
   <v>       0.00606061 </v>
   <v>       0.00606061 </v>
   <v>       0.00606061 </v>
   <v>       0.00606061 </v>
   <v>       0.00606061 </v>
   <v>       0.00606061 </v>
   <v>       0.00606061 </v>
   <v>       0.00606061 </v>
   <v>       0.00606061 </v>
   <v>       0.00606061 </v>
  </varray>
 </kpoints>
 <parameters>
  <separator name="general" >
   <i type="string" name="SYSTEM">unknown system</i>
   <i type="logical" name="LCOMPAT"> F  </i>
  </separator>
  <separator name="electronic" >
   <i type="string" name="PREC">a</i>
   <i name="ENMAX">    520.00000000</i>
   <i name="ENAUG">    342.92400000</i>
   <i name="EDIFF">      0.00001000</i>
   <i type="int" name="IALGO">    38</i>
   <i type="int" name="IWAVPR">    11</i>
   <i type="int" name="NBANDS">    16</i>
   <i name="NELECT">     20.00000000</i>
   <i type="int" name="TURBO">     0</i>
   <i type="int" name="IRESTART">     0</i>
   <i type="int" name="NREBOOT">     0</i>
   <i type="int" name="NMIN">     0</i>
   <i name="EREF">      0.00000000</i>
   <separator name="electronic smearing" >
    <i type="int" name="ISMEAR">     0</i>
    <i name="SIGMA">      0.02000000</i>
    <i name="KSPACING">      0.50000000</i>
    <i type="logical" name="KGAMMA"> T  </i>
   </separator>
   <separator name="electronic projectors" >
    <i type="logical" name="LREAL"> F  </i>
    <v name="ROPT">      0.00000000</v>
    <i type="int" name="LMAXPAW">  -100</i>
    <i type="int" name="LMAXMIX">     2</i>
    <i type="logical" name="NLSPLINE"> F  </i>
   </separator>
   <separator name="electronic startup" >
    <i type="int" name="ISTART">     0</i>
    <i type="int" name="ICHARG">     2</i>
    <i type="int" name="INIWAV">     1</i>
   </separator>
   <separator name="electronic spin" >
    <i type="int" name="ISPIN">     1</i>
    <i type="logical" name="LNONCOLLINEAR"> F  </i>
    <v name="MAGMOM">      1.00000000      1.00000000      1.00000000      1.00000000</v>
    <i name="NUPDOWN">     -1.00000000</i>
    <i type="logical" name="LSORBIT"> F  </i>
    <v name="SAXIS">      0.00000000      0.00000000      1.00000000</v>
    <i type="logical" name="LSPIRAL"> F  </i>
    <v name="QSPIRAL">      0.00000000      0.00000000      0.00000000</v>
    <i type="logical" name="LZEROZ"> F  </i>
   </separator>
   <separator name="electronic exchange-correlation" >
    <i type="logical" name="LASPH"> F  </i>
    <i type="logical" name="LMETAGGA"> F  </i>
   </separator>
   <separator name="electronic convergence" >
    <i type="int" name="NELM">   250</i>
    <i type="int" name="NELMDL">    -5</i>
    <i type="int" name="NELMIN">     6</i>
    <i name="ENINI">    520.00000000</i>
    <separator name="electronic convergence detail" >
     <i type="logical" name="LDIAG"> T  </i>
     <i type="logical" name="LSUBROT"> F  </i>
     <i name="WEIMIN">      0.00100000</i>
     <i name="EBREAK">      0.00000016</i>
     <i name="DEPER">      0.30000000</i>
     <i type="int" name="NRMM">     4</i>
     <i name="TIME">      0.40000000</i>
    </separator>
   </separator>
   <separator name="electronic mixer" >
    <i name="AMIX">      0.40000000</i>
    <i name="BMIX">      1.00000000</i>
    <i name="AMIN">      0.10000000</i>
    <i name="AMIX_MAG">      1.60000000</i>
    <i name="BMIX_MAG">      1.00000000</i>
    <separator name="electronic mixer details" >
     <i type="int" name="IMIX">     4</i>
     <i type="logical" name="MIXFIRST"> F  </i>
     <i type="int" name="MAXMIX">   -45</i>
     <i name="WC">    100.00000000</i>
     <i type="int" name="INIMIX">     1</i>
     <i type="int" name="MIXPRE">     1</i>
     <i type="int" name="MREMOVE">     5</i>
    </separator>
   </separator>
   <separator name="electronic dipolcorrection" >
    <i type="logical" name="LDIPOL"> F  </i>
    <i type="logical" name="LMONO"> F  </i>
    <i type="int" name="IDIPOL">     0</i>
    <i name="EPSILON">      1.00000000</i>
    <v name="DIPOL">   -100.00000000   -100.00000000   -100.00000000</v>
    <i name="EFIELD">      0.00000000</i>
   </separator>
  </separator>
  <separator name="grids" >
   <i type="int" name="NGX">    24</i>
   <i type="int" name="NGY">    36</i>
   <i type="int" name="NGZ">   150</i>
   <i type="int" name="NGXF">    48</i>
   <i type="int" name="NGYF">    72</i>
   <i type="int" name="NGZF">   300</i>
   <i type="logical" name="ADDGRID"> F  </i>
  </separator>
  <separator name="ionic" >
   <i type="int" name="NSW">   200</i>
   <i type="int" name="IBRION">     2</i>
   <i type="int" name="ISIF">     2</i>
   <i name="PSTRESS">      0.00000000</i>
   <i name="EDIFFG">     -0.01000000</i>
   <i type="int" name="NFREE">     1</i>
   <i name="POTIM">      0.30000000</i>
   <i name="SMASS">     -3.00000000</i>
   <i name="SCALEE">      1.00000000</i>
  </separator>
  <separator name="ionic md" >
   <i name="TEBEG">      0.00010000</i>
   <i name="TEEND">      0.00010000</i>
   <i type="int" name="NBLOCK">     1</i>
   <i type="int" name="KBLOCK">   200</i>
   <i type="int" name="NPACO">   256</i>
   <i name="APACO">     16.00000000</i>
  </separator>
  <separator name="symmetry" >
   <i type="int" name="ISYM">     2</i>
   <i name="SYMPREC">      0.00001000</i>
  </separator>
  <separator name="dos" >
   <i type="logical" name="LORBIT"> F  </i>
   <v name="RWIGS">     -1.00000000</v>
   <i type="int" name="NEDOS">   301</i>
   <i name="EMIN">     10.00000000</i>
   <i name="EMAX">    -10.00000000</i>
   <i name="EFERMI">      0.00000000</i>
  </separator>
  <separator name="writing" >
   <i type="int" name="NWRITE">     2</i>
   <i type="logical" name="LWAVE"> F  </i>
   <i type="logical" name="LCHARG"> F  </i>
   <i type="logical" name="LPARD"> F  </i>
   <i type="logical" name="LVTOT"> F  </i>
   <i type="logical" name="LVHAR"> F  </i>
   <i type="logical" name="LELF"> F  </i>
   <i type="logical" name="LOPTICS"> F  </i>
   <v name="STM">      0.00000000      0.00000000      0.00000000      0.00000000      0.00000000      0.00000000      0.00000000</v>
  </separator>
  <separator name="performance" >
   <i type="int" name="NPAR">     4</i>
   <i type="int" name="NSIM">     4</i>
   <i type="int" name="NBLK">    -1</i>
   <i type="logical" name="LPLANE"> T  </i>
   <i type="logical" name="LSCALAPACK"> T  </i>
   <i type="logical" name="LSCAAWARE"> F  </i>
   <i type="logical" name="LSCALU"> F  </i>
   <i type="logical" name="LASYNC"> F  </i>
   <i type="logical" name="LORBITALREAL"> F  </i>
  </separator>
  <separator name="miscellaneous" >
   <i type="int" name="IDIOT">     3</i>
   <i type="logical" name="LMUSIC"> F  </i>
   <v name="POMASS">     30.97400000</v>
   <v name="DARWINR">      0.00000000</v>
   <v name="DARWINV">      1.00000000</v>
   <i type="logical" name="LCORR"> T  </i>
  </separator>
  <i type="logical" name="GGA_COMPAT"> T  </i>
  <i type="logical" name="LBERRY"> F  </i>
  <i type="int" name="ICORELEVEL">     0</i>
  <i type="logical" name="LDAU"> F  </i>
  <i type="int" name="I_CONSTRAINED_M">     0</i>
  <separator name="electronic exchange-correlation" >
   <i type="string" name="GGA">--</i>
   <i type="int" name="VOSKOWN">     0</i>
   <i type="logical" name="LHFCALC"> F  </i>
   <i type="string" name="PRECFOCK"></i>
   <i type="logical" name="LSYMGRAD"> F  </i>
   <i type="logical" name="LHFONE"> F  </i>
   <i type="logical" name="LRHFCALC"> F  </i>
   <i type="logical" name="LTHOMAS"> F  </i>
   <i type="logical" name="LMODELHF"> F  </i>
   <i name="ENCUT4O">     -1.00000000</i>
   <i type="int" name="EXXOEP">     0</i>
   <i type="int" name="FOURORBIT">     0</i>
   <i name="AEXX">      0.00000000</i>
   <i name="HFALPHA">      0.00000000</i>
   <i name="MCALPHA">      0.00000000</i>
   <i name="ALDAX">      1.00000000</i>
   <i name="AGGAX">      1.00000000</i>
   <i name="ALDAC">      1.00000000</i>
   <i name="AGGAC">      1.00000000</i>
   <i type="int" name="NKREDX">     1</i>
   <i type="int" name="NKREDY">     1</i>
   <i type="int" name="NKREDZ">     1</i>
   <i type="logical" name="SHIFTRED"> F  </i>
   <i type="logical" name="ODDONLY"> F  </i>
   <i type="logical" name="EVENONLY"> F  </i>
   <i type="int" name="LMAXFOCK">     0</i>
   <i type="int" name="NMAXFOCKAE">     0</i>
   <i type="logical" name="LFOCKAEDFT"> F  </i>
   <i name="HFSCREEN">      0.00000000</i>
   <i name="HFSCREENC">      0.00000000</i>
   <i type="int" name="NBANDSGWLOW">     0</i>
  </separator>
  <separator name="vdW DFT" >
   <i type="logical" name="LUSE_VDW"> F  </i>
   <i name="Zab_VDW">     -0.84910000</i>
   <i name="PARAM1">      0.12340000</i>
   <i name="PARAM2">      1.00000000</i>
   <i name="PARAM3">      0.00000000</i>
  </separator>
  <separator name="model GW" >
   <i type="int" name="MODEL_GW">     0</i>
   <i name="MODEL_EPS0">     45.44475263</i>
   <i name="MODEL_ALPHA">      1.00000000</i>
  </separator>
  <separator name="linear response parameters" >
   <i type="logical" name="LEPSILON"> F  </i>
   <i type="logical" name="LRPA"> F  </i>
   <i type="logical" name="LNABLA"> F  </i>
   <i type="logical" name="LVEL"> F  </i>
   <i type="int" name="KINTER">     0</i>
   <i name="CSHIFT">      0.10000000</i>
   <i name="OMEGAMAX">     -1.00000000</i>
   <i name="DEG_THRESHOLD">      0.00200000</i>
  </separator>
  <separator name="orbital magnetization" >
   <i type="logical" name="NUCIND"> F  </i>
   <v name="MAGPOS">      0.00000000      0.00000000      0.00000000</v>
   <i type="logical" name="LNICSALL"> T  </i>
   <i type="logical" name="ORBITALMAG"> F  </i>
   <i type="logical" name="LMAGBLOCH"> F  </i>
   <i type="logical" name="LCHIMAG"> F  </i>
   <i type="logical" name="LGAUGE"> T  </i>
   <i type="int" name="MAGATOM">     0</i>
   <v name="MAGDIPOL">      0.00000000      0.00000000      0.00000000</v>
   <v name="AVECCONST">      0.00000000      0.00000000      0.00000000</v>
  </separator>
  <separator name="response functions" >
   <i type="logical" name="LADDER"> F  </i>
   <i type="logical" name="LFXC"> F  </i>
   <i type="logical" name="LHARTREE"> T  </i>
   <i type="int" name="IBSE">     0</i>
   <v type="int" name="KPOINT">    -1     0     0     0</v>
   <i type="logical" name="LTCTE"> F  </i>
   <i type="logical" name="LTETE"> F  </i>
   <i type="logical" name="LTRIPLET"> F  </i>
   <i type="logical" name="LFXCEPS"> F  </i>
   <i type="logical" name="LFXHEG"> F  </i>
   <i type="int" name="NATURALO">     0</i>
   <i type="logical" name="L2ORDER"> F  </i>
   <i type="logical" name="LUSEW"> F  </i>
   <i name="ENCUTGW">     -2.00000000</i>
   <i name="ENCUTGWSOFT">     -2.00000000</i>
   <i name="ENCUTLF">     -1.00000000</i>
   <i type="int" name="LMAXMP2">    -1</i>
   <i name="SCISSOR">      0.00000000</i>
   <i type="int" name="NOMEGA">     0</i>
   <i type="int" name="NOMEGAR">     0</i>
   <i type="int" name="NBANDSGW">    -1</i>
   <i type="int" name="NBANDSO">    -1</i>
   <i type="int" name="NBANDSV">    -1</i>
   <i type="int" name="NELM">   250</i>
   <i type="int" name="NELMHF">     1</i>
   <i type="int" name="DIM">     3</i>
   <i type="int" name="ANTIRES">     0</i>
   <i name="OMEGAMAX">    -30.00000000</i>
   <i name="OMEGAMIN">    -30.00000000</i>
   <i name="OMEGATL">   -200.00000000</i>
   <i type="int" name="OMEGAGRID">     0</i>
   <i name="CSHIFT">     -0.10000000</i>
   <i type="logical" name="SELFENERGY"> F  </i>
   <i type="logical" name="LSPECTRAL"> F  </i>
   <i type="logical" name="LSPECTRALGW"> F  </i>
   <i type="logical" name="LSINGLES"> F  </i>
   <i type="logical" name="LFERMIGW"> F  </i>
   <i type="logical" name="ODDONLYGW"> F  </i>
   <i type="logical" name="EVENONLYGW"> F  </i>
   <i type="int" name="NKREDLFX">     1</i>
   <i type="int" name="NKREDLFY">     1</i>
   <i type="int" name="NKREDLFZ">     1</i>
   <i type="int" name="MAXMEM">  1800</i>
   <i type="int" name="TELESCOPE">     0</i>
   <i type="int" name="TAUPAR">     1</i>
   <i type="int" name="OMEGAPAR">    -1</i>
   <i name="LAMBDA">      1.00000000</i>
  </separator>
  <separator name="External order field" >
   <i name="OFIELD_KAPPA">      0.00000000</i>
   <v name="OFIELD_K">      0.00000000      0.00000000      0.00000000</v>
   <i name="OFIELD_Q6_NEAR">      0.00000000</i>
   <i name="OFIELD_Q6_FAR">      0.00000000</i>
   <i name="OFIELD_A">      0.00000000</i>
  </separator>
 </parameters>
 <atominfo>
  <atoms>       4 </atoms>
  <types>       1 </types>
  <array name="atoms" >
   <dimension dim="1">ion</dimension>
   <field type="string">element</field>
   <field type="int">atomtype</field>
   <set>
    <rc><c>P </c><c>   1</c></rc>
    <rc><c>P </c><c>   1</c></rc>
    <rc><c>P </c><c>   1</c></rc>
    <rc><c>P </c><c>   1</c></rc>
   </set>
  </array>
  <array name="atomtypes" >
   <dimension dim="1">type</dimension>
   <field type="int">atomspertype</field>
   <field type="string">element</field>
   <field>mass</field>
   <field>valence</field>
   <field type="string">pseudopotential</field>
   <set>
    <rc><c>   4</c><c>P </c><c>     30.97400000</c><c>      5.00000000</c><c>  PAW_PBE P 06Sep2000                   </c></rc>
   </set>
  </array>
 </atominfo>
 <structure name="initialpos" >
  <crystal>
   <varray name="basis" >
    <v>       3.28481600       0.00000000       0.00000000 </v>
    <v>       0.00000000       4.60598100      -0.00005300 </v>
    <v>       0.00000000       0.00000000      20.02439000 </v>
   </varray>
   <i name="volume">    302.96501751 </i>
   <varray name="rec_basis" >
    <v>       0.30443105       0.00000000       0.00000000 </v>
    <v>       0.00000000       0.21710902       0.00000000 </v>
    <v>       0.00000000       0.00000057       0.04993910 </v>
   </varray>
  </crystal>
  <varray name="positions" >
   <v>       0.50000000       0.91077300       0.55252100 </v>
   <v>       0.50000000       0.08922700       0.44747900 </v>
   <v>       0.00000000       0.41076900       0.44747900 </v>
   <v>       0.00000000       0.58923100       0.55252100 </v>
  </varray>
 </structure>
 <calculation>
  <scstep>
   <time name="dav">    1.31    1.31</time>
   <time name="total">    1.33    1.33</time>
   <energy>
    <i name="alphaZ">      5.29487217 </i>
    <i name="ewald">   1880.92039524 </i>
    <i name="hartreedc">  -2474.53233122 </i>
    <i name="XCdc">     13.09883402 </i>
    <i name="pawpsdc">    559.04011960 </i>
    <i name="pawaedc">   -526.39432044 </i>
    <i name="eentropy">     -0.00038757 </i>
    <i name="bandstr">    -29.58291202 </i>
    <i name="atom">    704.16778566 </i>
    <i name="e_fr_energy">    132.01205545 </i>
    <i name="e_wo_entrp">    132.01244302 </i>
    <i name="e_0_energy">    132.01224924 </i>
   </energy>
  </scstep>
  <scstep>
   <time name="dav">    1.77    1.77</time>
   <time name="total">    1.77    1.77</time>
   <energy>
    <i name="e_fr_energy">     -6.50219663 </i>
    <i name="e_wo_entrp">     -6.50219663 </i>
    <i name="e_0_energy">     -6.50219663 </i>
   </energy>
  </scstep>
  <scstep>
   <time name="dav">    1.58    1.58</time>
   <time name="total">    1.58    1.58</time>
   <energy>
    <i name="e_fr_energy">    -21.36158537 </i>
    <i name="e_wo_entrp">    -21.36158537 </i>
    <i name="e_0_energy">    -21.36158537 </i>
   </energy>
  </scstep>
  <scstep>
   <time name="dav">    1.66    1.66</time>
   <time name="total">    1.66    1.67</time>
   <energy>
    <i name="e_fr_energy">    -21.66496277 </i>
    <i name="e_wo_entrp">    -21.66496277 </i>
    <i name="e_0_energy">    -21.66496277 </i>
   </energy>
  </scstep>
  <scstep>
   <time name="dav">    1.73    1.73</time>
   <time name="total">    1.81    1.81</time>
   <energy>
    <i name="e_fr_energy">    -21.67467144 </i>
    <i name="e_wo_entrp">    -21.67467144 </i>
    <i name="e_0_energy">    -21.67467144 </i>
   </energy>
  </scstep>
  <scstep>
   <time name="dav">    1.55    1.55</time>
   <time name="total">    1.63    1.64</time>
   <energy>
    <i name="e_fr_energy">    -21.52563530 </i>
    <i name="e_wo_entrp">    -21.52563530 </i>
    <i name="e_0_energy">    -21.52563530 </i>
   </energy>
  </scstep>
  <scstep>
   <time name="dav">    1.54    1.54</time>
   <time name="total">    1.62    1.63</time>
   <energy>
    <i name="e_fr_energy">    -21.45593797 </i>
    <i name="e_wo_entrp">    -21.45593797 </i>
    <i name="e_0_energy">    -21.45593797 </i>
   </energy>
  </scstep>
  <scstep>
   <time name="dav">    1.57    1.58</time>
   <time name="total">    1.66    1.66</time>
   <energy>
    <i name="e_fr_energy">    -21.45515624 </i>
    <i name="e_wo_entrp">    -21.45515624 </i>
    <i name="e_0_energy">    -21.45515624 </i>
   </energy>
  </scstep>
  <scstep>
   <time name="dav">    1.85    1.85</time>
   <time name="total">    1.94    1.94</time>
   <energy>
    <i name="e_fr_energy">    -21.45500315 </i>
    <i name="e_wo_entrp">    -21.45500315 </i>
    <i name="e_0_energy">    -21.45500315 </i>
   </energy>
  </scstep>
  <scstep>
   <time name="dav">    1.58    1.58</time>
   <time name="total">    1.66    1.66</time>
   <energy>
    <i name="e_fr_energy">    -21.45480902 </i>
    <i name="e_wo_entrp">    -21.45480902 </i>
    <i name="e_0_energy">    -21.45480902 </i>
   </energy>
  </scstep>
  <scstep>
   <time name="dav">    1.60    1.60</time>
   <time name="total">    1.69    1.69</time>
   <energy>
    <i name="e_fr_energy">    -21.45470225 </i>
    <i name="e_wo_entrp">    -21.45470225 </i>
    <i name="e_0_energy">    -21.45470225 </i>
   </energy>
  </scstep>
  <scstep>
   <time name="dav">    1.43    1.43</time>
   <time name="total">    1.52    1.52</time>
   <energy>
    <i name="e_fr_energy">    -21.45510184 </i>
    <i name="e_wo_entrp">    -21.45510184 </i>
    <i name="e_0_energy">    -21.45510184 </i>
   </energy>
  </scstep>
  <scstep>
   <time name="dav">    1.41    1.41</time>
   <time name="total">    1.49    1.49</time>
   <energy>
    <i name="e_fr_energy">    -21.45519387 </i>
    <i name="e_wo_entrp">    -21.45519387 </i>
    <i name="e_0_energy">    -21.45519387 </i>
   </energy>
  </scstep>
  <scstep>
   <time name="dav">    1.31    1.31</time>
   <time name="total">    1.39    1.39</time>
   <energy>
    <i name="e_fr_energy">    -21.45533324 </i>
    <i name="e_wo_entrp">    -21.45533324 </i>
    <i name="e_0_energy">    -21.45533324 </i>
   </energy>
  </scstep>
  <scstep>
   <time name="dav">    1.35    1.35</time>
   <time name="total">    1.43    1.43</time>
   <energy>
    <i name="e_fr_energy">    -21.45537542 </i>
    <i name="e_wo_entrp">    -21.45537542 </i>
    <i name="e_0_energy">    -21.45537542 </i>
   </energy>
  </scstep>
  <scstep>
   <time name="dav">    1.28    1.28</time>
   <time name="total">    1.37    1.37</time>
   <energy>
    <i name="e_fr_energy">    -21.45540812 </i>
    <i name="e_wo_entrp">    -21.45540812 </i>
    <i name="e_0_energy">    -21.45540812 </i>
   </energy>
  </scstep>
  <scstep>
   <time name="dav">    1.30    1.30</time>
   <time name="total">    1.31    1.32</time>
   <energy>
    <i name="alphaZ">      5.29487217 </i>
    <i name="ewald">   1880.92039524 </i>
    <i name="hartreedc">  -2490.24328525 </i>
    <i name="XCdc">     14.17769975 </i>
    <i name="pawpsdc">   2135.76741111 </i>
    <i name="pawaedc">  -2103.47208062 </i>
    <i name="eentropy">     -0.00000000 </i>
    <i name="bandstr">   -168.06820845 </i>
    <i name="atom">    704.16778566 </i>
    <i name="e_fr_energy">    -21.45541038 </i>
    <i name="e_wo_entrp">    -21.45541038 </i>
    <i name="e_0_energy">    -21.45541038 </i>
   </energy>
  </scstep>
  <structure>
   <crystal>
    <varray name="basis" >
     <v>       3.28481600       0.00000000       0.00000000 </v>
     <v>       0.00000000       4.60598100      -0.00005300 </v>
     <v>       0.00000000       0.00000000      20.02439000 </v>
    </varray>
    <i name="volume">    302.96501751 </i>
    <varray name="rec_basis" >
     <v>       0.30443105       0.00000000       0.00000000 </v>
     <v>       0.00000000       0.21710902       0.00000000 </v>
     <v>       0.00000000       0.00000057       0.04993910 </v>
    </varray>
   </crystal>
   <varray name="positions" >
    <v>       0.50000000       0.91077300       0.55252100 </v>
    <v>       0.50000000       0.08922700       0.44747900 </v>
    <v>       0.00000000       0.41076900       0.44747900 </v>
    <v>       0.00000000       0.58923100       0.55252100 </v>
   </varray>
  </structure>
  <varray name="forces" >
   <v>      -0.00000000       0.07747365       0.01135270 </v>
   <v>       0.00000000      -0.07747365      -0.01135270 </v>
   <v>      -0.00000007       0.07744009      -0.01135112 </v>
   <v>       0.00000007      -0.07744009       0.01135112 </v>
  </varray>
  <varray name="stress" >
   <v>       2.85714475      -0.00000397       0.00000047 </v>
   <v>      -0.00000402       2.01873587       0.00034909 </v>
   <v>       0.00000046       0.00034910       0.18799867 </v>
  </varray>
  <energy>
   <i name="e_fr_energy">    -21.45541038 </i>
   <i name="e_wo_entrp">    -21.45541038 </i>
   <i name="e_0_energy">     -0.00000000 </i>
  </energy>
  <time name="totalsc">   27.64   27.68</time>
 </calculation>
 <calculation>
  <scstep>
   <time name="dav">    1.39    1.39</time>
   <time name="total">    1.48    1.48</time>
   <energy>
    <i name="alphaZ">      5.29487217 </i>
    <i name="ewald">   1880.27312758 </i>
    <i name="hartreedc">  -2489.74114506 </i>
    <i name="XCdc">     14.16517217 </i>
    <i name="pawpsdc">   2135.38837964 </i>
    <i name="pawaedc">  -2103.09309938 </i>
    <i name="eentropy">     -0.00000000 </i>
    <i name="bandstr">   -167.91093581 </i>
    <i name="atom">    704.16778566 </i>
    <i name="e_fr_energy">    -21.45584302 </i>
    <i name="e_wo_entrp">    -21.45584302 </i>
    <i name="e_0_energy">    -21.45584302 </i>
   </energy>
  </scstep>
  <scstep>
   <time name="dav">    1.68    1.68</time>
   <time name="total">    1.77    1.77</time>
   <energy>
    <i name="e_fr_energy">    -21.45591166 </i>
    <i name="e_wo_entrp">    -21.45591166 </i>
    <i name="e_0_energy">    -21.45591166 </i>
   </energy>
  </scstep>
  <scstep>
   <time name="dav">    1.38    1.38</time>
   <time name="total">    1.46    1.46</time>
   <energy>
    <i name="e_fr_energy">    -21.45591106 </i>
    <i name="e_wo_entrp">    -21.45591106 </i>
    <i name="e_0_energy">    -21.45591106 </i>
   </energy>
  </scstep>
  <scstep>
   <time name="dav">    1.22    1.22</time>
   <time name="total">    1.31    1.31</time>
   <energy>
    <i name="e_fr_energy">    -21.45591281 </i>
    <i name="e_wo_entrp">    -21.45591281 </i>
    <i name="e_0_energy">    -21.45591281 </i>
   </energy>
  </scstep>
  <scstep>
   <time name="dav">    1.11    1.11</time>
   <time name="total">    1.20    1.20</time>
   <energy>
    <i name="e_fr_energy">    -21.45591327 </i>
    <i name="e_wo_entrp">    -21.45591327 </i>
    <i name="e_0_energy">    -21.45591327 </i>
   </energy>
  </scstep>
  <scstep>
   <time name="dav">    1.09    1.09</time>
   <time name="total">    1.10    1.10</time>
   <energy>
    <i name="alphaZ">      5.29487217 </i>
    <i name="ewald">   1880.27312758 </i>
    <i name="hartreedc">  -2489.74177483 </i>
    <i name="XCdc">     14.16359552 </i>
    <i name="pawpsdc">   2126.98504432 </i>
    <i name="pawaedc">  -2094.68655916 </i>
    <i name="eentropy">     -0.00000000 </i>
    <i name="bandstr">   -167.91200513 </i>
    <i name="atom">    704.16778566 </i>
    <i name="e_fr_energy">    -21.45591385 </i>
    <i name="e_wo_entrp">    -21.45591385 </i>
    <i name="e_0_energy">    -21.45591385 </i>
   </energy>
  </scstep>
  <structure>
   <crystal>
    <varray name="basis" >
     <v>       3.28481600       0.00000000       0.00000000 </v>
     <v>       0.00000000       4.60598100      -0.00005300 </v>
     <v>       0.00000000       0.00000000      20.02439000 </v>
    </varray>
    <i name="volume">    302.96501751 </i>
    <varray name="rec_basis" >
     <v>       0.30443105       0.00000000       0.00000000 </v>
     <v>       0.00000000       0.21710902       0.00000000 </v>
     <v>       0.00000000       0.00000057       0.04993910 </v>
    </varray>
   </crystal>
   <varray name="positions" >
    <v>       0.50000000       0.91125987       0.55253741 </v>
    <v>       0.50000000       0.08874013       0.44746259 </v>
    <v>      -0.00000000       0.41125566       0.44746259 </v>
    <v>       0.00000000       0.58874434       0.55253741 </v>
   </varray>
  </structure>
  <varray name="forces" >
   <v>      -0.00000006       0.02789466       0.01364931 </v>
   <v>       0.00000006      -0.02789466      -0.01364931 </v>
   <v>      -0.00000002       0.02786659      -0.01364951 </v>
   <v>       0.00000002      -0.02786659       0.01364951 </v>
  </varray>
  <varray name="stress" >
   <v>       2.61984924       0.00000069      -0.00000022 </v>
   <v>       0.00000066       1.30404604       0.00029558 </v>
   <v>      -0.00000015       0.00029561       0.24210007 </v>
  </varray>
  <energy>
   <i name="e_fr_energy">    -21.45591385 </i>
   <i name="e_wo_entrp">    -21.45591385 </i>
   <i name="e_0_energy">     -0.00000000 </i>
  </energy>
  <time name="totalsc">    9.07    9.09</time>
 </calculation>
 <calculation>
  <scstep>
   <time name="dav">    1.38    1.38</time>
   <time name="total">    1.47    1.47</time>
   <energy>
    <i name="alphaZ">      5.29487217 </i>
    <i name="ewald">   1879.88111797 </i>
    <i name="hartreedc">  -2489.43178073 </i>
    <i name="XCdc">     14.15599676 </i>
    <i name="pawpsdc">   2126.86658408 </i>
    <i name="pawaedc">  -2094.56810196 </i>
    <i name="eentropy">     -0.00000000 </i>
    <i name="bandstr">   -167.82244621 </i>
    <i name="atom">    704.16778566 </i>
    <i name="e_fr_energy">    -21.45597225 </i>
    <i name="e_wo_entrp">    -21.45597225 </i>
    <i name="e_0_energy">    -21.45597225 </i>
   </energy>
  </scstep>
  <scstep>
   <time name="dav">    1.64    1.64</time>
   <time name="total">    1.73    1.73</time>
   <energy>
    <i name="e_fr_energy">    -21.45599680 </i>
    <i name="e_wo_entrp">    -21.45599680 </i>
    <i name="e_0_energy">    -21.45599680 </i>
   </energy>
  </scstep>
  <scstep>
   <time name="dav">    1.20    1.20</time>
   <time name="total">    1.28    1.28</time>
   <energy>
    <i name="e_fr_energy">    -21.45599598 </i>
    <i name="e_wo_entrp">    -21.45599598 </i>
    <i name="e_0_energy">    -21.45599598 </i>
   </energy>
  </scstep>
  <scstep>
   <time name="dav">    1.07    1.07</time>
   <time name="total">    1.15    1.15</time>
   <energy>
    <i name="e_fr_energy">    -21.45599565 </i>
    <i name="e_wo_entrp">    -21.45599565 </i>
    <i name="e_0_energy">    -21.45599565 </i>
   </energy>
  </scstep>
  <scstep>
   <time name="dav">    1.02    1.02</time>
   <time name="total">    1.10    1.11</time>
   <energy>
    <i name="e_fr_energy">    -21.45599585 </i>
    <i name="e_wo_entrp">    -21.45599585 </i>
    <i name="e_0_energy">    -21.45599585 </i>
   </energy>
  </scstep>
  <scstep>
   <time name="dav">    1.00    1.00</time>
   <time name="total">    1.01    1.02</time>
   <energy>
    <i name="alphaZ">      5.29487217 </i>
    <i name="ewald">   1879.88111797 </i>
    <i name="hartreedc">  -2489.43520542 </i>
    <i name="XCdc">     14.15511018 </i>
    <i name="pawpsdc">   2121.71608857 </i>
    <i name="pawaedc">  -2089.41570706 </i>
    <i name="eentropy">     -0.00000000 </i>
    <i name="bandstr">   -167.82005796 </i>
    <i name="atom">    704.16778566 </i>
    <i name="e_fr_energy">    -21.45599589 </i>
    <i name="e_wo_entrp">    -21.45599589 </i>
    <i name="e_0_energy">    -21.45599589 </i>
   </energy>
  </scstep>
  <structure>
   <crystal>
    <varray name="basis" >
     <v>       3.28481600       0.00000000       0.00000000 </v>
     <v>       0.00000000       4.60598100      -0.00005300 </v>
     <v>       0.00000000       0.00000000      20.02439000 </v>
    </varray>
    <i name="volume">    302.96501751 </i>
    <varray name="rec_basis" >
     <v>       0.30443105       0.00000000       0.00000000 </v>
     <v>       0.00000000       0.21710902       0.00000000 </v>
     <v>       0.00000000       0.00000057       0.04993910 </v>
    </varray>
   </crystal>
   <varray name="positions" >
    <v>       0.50000000       0.91155533       0.55254737 </v>
    <v>       0.50000000       0.08844467       0.44745263 </v>
    <v>      -0.00000000       0.41155099       0.44745264 </v>
    <v>       0.00000000       0.58844901       0.55254736 </v>
   </varray>
  </structure>
  <varray name="forces" >
   <v>      -0.00000003      -0.00187755       0.01494614 </v>
   <v>       0.00000003       0.00187755      -0.01494614 </v>
   <v>      -0.00000001      -0.00190220      -0.01494708 </v>
   <v>       0.00000001       0.00190220       0.01494708 </v>
  </varray>
  <varray name="stress" >
   <v>       2.48255393       0.00000076      -0.00000025 </v>
   <v>       0.00000075       0.87122405       0.00026426 </v>
   <v>      -0.00000024       0.00026428       0.26715942 </v>
  </varray>
  <energy>
   <i name="e_fr_energy">    -21.45599589 </i>
   <i name="e_wo_entrp">    -21.45599589 </i>
   <i name="e_0_energy">     -0.00000000 </i>
  </energy>
  <time name="totalsc">    8.52    8.53</time>
 </calculation>
 <calculation>
  <scstep>
   <time name="dav">    1.28    1.28</time>
   <time name="total">    1.37    1.37</time>
   <energy>
    <i name="alphaZ">      5.29487217 </i>
    <i name="ewald">   1879.41538025 </i>
    <i name="hartreedc">  -2488.99738263 </i>
    <i name="XCdc">     14.15191319 </i>
    <i name="pawpsdc">   2121.58781224 </i>
    <i name="pawaedc">  -2089.28742848 </i>
    <i name="eentropy">     -0.00000000 </i>
    <i name="bandstr">   -167.78896659 </i>
    <i name="atom">    704.16778566 </i>
    <i name="e_fr_energy">    -21.45601419 </i>
    <i name="e_wo_entrp">    -21.45601419 </i>
    <i name="e_0_energy">    -21.45601419 </i>
   </energy>
  </scstep>
  <scstep>
   <time name="dav">    1.43    1.43</time>
   <time name="total">    1.51    1.51</time>
   <energy>
    <i name="e_fr_energy">    -21.45601817 </i>
    <i name="e_wo_entrp">    -21.45601817 </i>
    <i name="e_0_energy">    -21.45601817 </i>
   </energy>
  </scstep>
  <scstep>
   <time name="dav">    1.00    1.00</time>
   <time name="total">    1.08    1.08</time>
   <energy>
    <i name="e_fr_energy">    -21.45601790 </i>
    <i name="e_wo_entrp">    -21.45601790 </i>
    <i name="e_0_energy">    -21.45601790 </i>
   </energy>
  </scstep>
  <scstep>
   <time name="dav">    0.99    0.99</time>
   <time name="total">    1.07    1.07</time>
   <energy>
    <i name="e_fr_energy">    -21.45601780 </i>
    <i name="e_wo_entrp">    -21.45601780 </i>
    <i name="e_0_energy">    -21.45601780 </i>
   </energy>
  </scstep>
  <scstep>
   <time name="dav">    0.98    0.98</time>
   <time name="total">    1.07    1.07</time>
   <energy>
    <i name="e_fr_energy">    -21.45601786 </i>
    <i name="e_wo_entrp">    -21.45601786 </i>
    <i name="e_0_energy">    -21.45601786 </i>
   </energy>
  </scstep>
  <scstep>
   <time name="dav">    0.99    0.99</time>
   <time name="total">    1.01    1.01</time>
   <energy>
    <i name="alphaZ">      5.29487217 </i>
    <i name="ewald">   1879.41538025 </i>
    <i name="hartreedc">  -2489.00045289 </i>
    <i name="XCdc">     14.15170817 </i>
    <i name="pawpsdc">   2119.89530267 </i>
    <i name="pawaedc">  -2087.59437789 </i>
    <i name="eentropy">     -0.00000000 </i>
    <i name="bandstr">   -167.78623602 </i>
    <i name="atom">    704.16778566 </i>
    <i name="e_fr_energy">    -21.45601787 </i>
    <i name="e_wo_entrp">    -21.45601787 </i>
    <i name="e_0_energy">    -21.45601787 </i>
   </energy>
  </scstep>
  <structure>
   <crystal>
    <varray name="basis" >
     <v>       3.28481600       0.00000000       0.00000000 </v>
     <v>       0.00000000       4.60598100      -0.00005300 </v>
     <v>       0.00000000       0.00000000      20.02439000 </v>
    </varray>
    <i name="volume">    302.96501751 </i>
    <varray name="rec_basis" >
     <v>       0.30443105       0.00000000       0.00000000 </v>
     <v>       0.00000000       0.21710902       0.00000000 </v>
     <v>       0.00000000       0.00000057       0.04993910 </v>
    </varray>
   </crystal>
   <varray name="positions" >
    <v>       0.50000000       0.91156024       0.55257221 </v>
    <v>       0.50000000       0.08843976       0.44742779 </v>
    <v>      -0.00000000       0.41155572       0.44742780 </v>
    <v>       0.00000000       0.58844428       0.55257220 </v>
   </varray>
  </structure>
  <varray name="forces" >
   <v>       0.00000003      -0.00071102       0.00761639 </v>
   <v>      -0.00000003       0.00071102      -0.00761639 </v>
   <v>       0.00000005      -0.00073067      -0.00761701 </v>
   <v>      -0.00000005       0.00073067       0.00761701 </v>
  </varray>
  <varray name="stress" >
   <v>       2.46852577       0.00000063      -0.00000014 </v>
   <v>       0.00000059       0.83896038       0.00020927 </v>
   <v>      -0.00000021       0.00020921       0.10188172 </v>
  </varray>
  <energy>
   <i name="e_fr_energy">    -21.45601787 </i>
   <i name="e_wo_entrp">    -21.45601787 </i>
   <i name="e_0_energy">     -0.00000000 </i>
  </energy>
  <time name="totalsc">    7.82    7.83</time>
  <eigenvalues>
   <array>
    <dimension dim="1">band</dimension>
    <dimension dim="2">kpoint</dimension>
    <dimension dim="3">spin</dimension>
    <field>eigene</field>
    <field>occ</field>
    <set>
     <set comment="spin 1">
      <set comment="kpoint 1">
       <r>  -17.2462    1.0000 </r>
       <r>  -14.7776    1.0000 </r>
       <r>  -11.4080    1.0000 </r>
       <r>   -7.9409    1.0000 </r>
       <r>   -6.9448    1.0000 </r>
       <r>   -6.7819    1.0000 </r>
       <r>   -5.5301    1.0000 </r>
       <r>   -3.9465    1.0000 </r>
       <r>   -3.9433    1.0000 </r>
       <r>   -2.2540    1.0000 </r>
       <r>   -1.3810    0.0000 </r>
       <r>   -0.5526    0.0000 </r>
       <r>    0.5082    0.0000 </r>
       <r>    1.1235    0.0000 </r>
       <r>    2.1473    0.0000 </r>
       <r>    2.3053    0.0000 </r>
      </set>
      <set comment="kpoint 2">
       <r>  -17.2213    1.0000 </r>
       <r>  -14.7517    1.0000 </r>
       <r>  -11.4157    1.0000 </r>
       <r>   -7.9218    1.0000 </r>
       <r>   -6.9597    1.0000 </r>
       <r>   -6.7599    1.0000 </r>
       <r>   -5.6942    1.0000 </r>
       <r>   -4.1190    1.0000 </r>
       <r>   -3.9324    1.0000 </r>
       <r>   -2.2527    1.0000 </r>
       <r>   -1.3576    0.0000 </r>
       <r>   -0.3270    0.0000 </r>
       <r>    0.7320    0.0000 </r>
       <r>    0.9673    0.0000 </r>
       <r>    2.1732    0.0000 </r>
       <r>    2.3331    0.0000 </r>
      </set>
      <set comment="kpoint 3">
       <r>  -17.1468    1.0000 </r>
       <r>  -14.6740    1.0000 </r>
       <r>  -11.4436    1.0000 </r>
       <r>   -7.8653    1.0000 </r>
       <r>   -7.0205    1.0000 </r>
       <r>   -6.6941    1.0000 </r>
       <r>   -6.1003    1.0000 </r>
       <r>   -4.5258    1.0000 </r>
       <r>   -3.9026    1.0000 </r>
       <r>   -2.2666    1.0000 </r>
       <r>   -1.2876    0.0000 </r>
       <r>    0.2819    0.0000 </r>
       <r>    0.5750    0.0000 </r>
       <r>    1.2880    0.0000 </r>
       <r>    2.2480    0.0000 </r>
       <r>    2.4162    0.0000 </r>
      </set>
      <set comment="kpoint 4">
       <r>  -17.0230    1.0000 </r>
       <r>  -14.5445    1.0000 </r>
       <r>  -11.5055    1.0000 </r>
       <r>   -7.7732    1.0000 </r>
       <r>   -7.1797    1.0000 </r>
       <r>   -6.5946    1.0000 </r>
       <r>   -6.5858    1.0000 </r>
       <r>   -4.9611    1.0000 </r>
       <r>   -3.8631    1.0000 </r>
       <r>   -2.3163    1.0000 </r>
       <r>   -1.1721    0.0000 </r>
       <r>    0.0810    0.0000 </r>
       <r>    1.1405    0.0000 </r>
       <r>    1.9052    0.0000 </r>
       <r>    2.3417    0.0000 </r>
       <r>    2.5541    0.0000 </r>
      </set>
      <set comment="kpoint 5">
       <r>  -16.8503    1.0000 </r>
       <r>  -14.3637    1.0000 </r>
       <r>  -11.6234    1.0000 </r>
       <r>   -7.6494    1.0000 </r>
       <r>   -7.5063    1.0000 </r>
       <r>   -7.0605    1.0000 </r>
       <r>   -6.4369    1.0000 </r>
       <r>   -5.2593    1.0000 </r>
       <r>   -3.8321    1.0000 </r>
       <r>   -2.4121    1.0000 </r>
       <r>   -1.0130    0.0000 </r>
       <r>   -0.4098    0.0000 </r>
       <r>    2.0028    0.0000 </r>
       <r>    2.1104    0.0000 </r>
       <r>    2.1220    0.0000 </r>
       <r>    2.6791    0.0000 </r>
      </set>
      <set comment="kpoint 6">
       <r>  -16.6297    1.0000 </r>
       <r>  -14.1317    1.0000 </r>
       <r>  -11.8220    1.0000 </r>
       <r>   -8.0081    1.0000 </r>
       <r>   -7.5003    1.0000 </r>
       <r>   -7.4243    1.0000 </r>
       <r>   -6.2507    1.0000 </r>
       <r>   -5.3673    1.0000 </r>
       <r>   -3.8384    1.0000 </r>
       <r>   -2.5627    1.0000 </r>
       <r>   -0.8172    0.0000 </r>
       <r>   -0.8152    0.0000 </r>
       <r>    1.4755    0.0000 </r>
       <r>    1.5619    0.0000 </r>
       <r>    2.7001    0.0000 </r>
       <r>    2.8934    0.0000 </r>
      </set>
      <set comment="kpoint 7">
       <r>  -16.3622    1.0000 </r>
       <r>  -13.8492    1.0000 </r>
       <r>  -12.1156    1.0000 </r>
       <r>   -8.6168    1.0000 </r>
       <r>   -7.6476    1.0000 </r>
       <r>   -7.3370    1.0000 </r>
       <r>   -6.0324    1.0000 </r>
       <r>   -5.3352    1.0000 </r>
       <r>   -3.9124    1.0000 </r>
       <r>   -2.7725    1.0000 </r>
       <r>   -1.0757    0.0000 </r>
       <r>   -0.5915    0.0000 </r>
       <r>    0.8423    0.0000 </r>
       <r>    1.0148    0.0000 </r>
       <r>    2.2949    0.0000 </r>
       <r>    3.1921    0.0000 </r>
      </set>
      <set comment="kpoint 8">
       <r>  -16.0493    1.0000 </r>
       <r>  -13.5167    1.0000 </r>
       <r>  -12.4980    1.0000 </r>
       <r>   -9.2657    1.0000 </r>
       <r>   -7.7260    1.0000 </r>
       <r>   -7.1779    1.0000 </r>
       <r>   -5.7904    1.0000 </r>
       <r>   -5.2279    1.0000 </r>
       <r>   -4.0582    1.0000 </r>
       <r>   -3.0372    1.0000 </r>
       <r>   -1.1500    0.0000 </r>
       <r>   -0.3928    0.0000 </r>
       <r>    0.2410    0.0000 </r>
       <r>    0.5671    0.0000 </r>
       <r>    1.8043    0.0000 </r>
       <r>    3.1855    0.0000 </r>
      </set>
      <set comment="kpoint 9">
       <r>  -15.6933    1.0000 </r>
       <r>  -13.1351    1.0000 </r>
       <r>  -12.9449    1.0000 </r>
       <r>   -9.9157    1.0000 </r>
       <r>   -7.6815    1.0000 </r>
       <r>   -7.0523    1.0000 </r>
       <r>   -5.5377    1.0000 </r>
       <r>   -5.0950    1.0000 </r>
       <r>   -4.2281    1.0000 </r>
       <r>   -3.3412    1.0000 </r>
       <r>   -1.0519    0.0000 </r>
       <r>   -0.4121    0.0000 </r>
       <r>   -0.2817    0.0000 </r>
       <r>    0.4372    0.0000 </r>
       <r>    1.3124    0.0000 </r>
       <r>    2.8074    0.0000 </r>
      </set>
      <set comment="kpoint 10">
       <r>  -15.2970    1.0000 </r>
       <r>  -13.4269    1.0000 </r>
       <r>  -12.7055    1.0000 </r>
       <r>  -10.5463    1.0000 </r>
       <r>   -7.5490    1.0000 </r>
       <r>   -6.9986    1.0000 </r>
       <r>   -5.2945    1.0000 </r>
       <r>   -4.9794    1.0000 </r>
       <r>   -4.3427    1.0000 </r>
       <r>   -3.6590    1.0000 </r>
       <r>   -0.8202    0.0000 </r>
       <r>   -0.6888    0.0000 </r>
       <r>   -0.6737    0.0000 </r>
       <r>    0.6750    0.0000 </r>
       <r>    0.8237    0.0000 </r>
       <r>    2.3721    0.0000 </r>
      </set>
      <set comment="kpoint 11">
       <r>  -14.8648    1.0000 </r>
       <r>  -13.9190    1.0000 </r>
       <r>  -12.2293    1.0000 </r>
       <r>  -11.1462    1.0000 </r>
       <r>   -7.3680    1.0000 </r>
       <r>   -7.0453    1.0000 </r>
       <r>   -5.0902    1.0000 </r>
       <r>   -4.9233    1.0000 </r>
       <r>   -4.3375    1.0000 </r>
       <r>   -3.9581    1.0000 </r>
       <r>   -0.9428    0.0000 </r>
       <r>   -0.9125    0.0000 </r>
       <r>   -0.4922    0.0000 </r>
       <r>    0.3491    0.0000 </r>
       <r>    1.0457    0.0000 </r>
       <r>    1.9174    0.0000 </r>
      </set>
      <set comment="kpoint 12">
       <r>  -14.4026    1.0000 </r>
       <r>  -14.4025    1.0000 </r>
       <r>  -11.7086    1.0000 </r>
       <r>  -11.7086    1.0000 </r>
       <r>   -7.1831    1.0000 </r>
       <r>   -7.1831    1.0000 </r>
       <r>   -4.9586    1.0000 </r>
       <r>   -4.9586    1.0000 </r>
       <r>   -4.1989    1.0000 </r>
       <r>   -4.1989    1.0000 </r>
       <r>   -1.0165    0.0000 </r>
       <r>   -1.0165    0.0000 </r>
       <r>   -0.0955    0.0000 </r>
       <r>   -0.0955    0.0000 </r>
       <r>    1.4685    0.0000 </r>
       <r>    1.4685    0.0000 </r>
      </set>
      <set comment="kpoint 13">
       <r>  -17.2245    1.0000 </r>
       <r>  -14.8072    1.0000 </r>
       <r>  -11.4190    1.0000 </r>
       <r>   -8.0934    1.0000 </r>
       <r>   -6.8559    1.0000 </r>
       <r>   -6.6864    1.0000 </r>
       <r>   -5.5134    1.0000 </r>
       <r>   -3.9616    1.0000 </r>
       <r>   -3.8436    1.0000 </r>
       <r>   -2.4606    1.0000 </r>
       <r>   -1.1899    0.0000 </r>
       <r>   -0.5360    0.0000 </r>
       <r>    0.4627    0.0000 </r>
       <r>    1.1081    0.0000 </r>
       <r>    2.2069    0.0000 </r>
       <r>    2.3359    0.0000 </r>
      </set>
      <set comment="kpoint 14">
       <r>  -17.1997    1.0000 </r>
       <r>  -14.7814    1.0000 </r>
       <r>  -11.4254    1.0000 </r>
       <r>   -8.0776    1.0000 </r>
       <r>   -6.8655    1.0000 </r>
       <r>   -6.6720    1.0000 </r>
       <r>   -5.6705    1.0000 </r>
       <r>   -4.1423    1.0000 </r>
       <r>   -3.8301    1.0000 </r>
       <r>   -2.4556    1.0000 </r>
       <r>   -1.1704    0.0000 </r>
       <r>   -0.3107    0.0000 </r>
       <r>    0.6784    0.0000 </r>
       <r>    0.9639    0.0000 </r>
       <r>    2.2316    0.0000 </r>
       <r>    2.3636    0.0000 </r>
      </set>
      <set comment="kpoint 15">
       <r>  -17.1252    1.0000 </r>
       <r>  -14.7042    1.0000 </r>
       <r>  -11.4494    1.0000 </r>
       <r>   -8.0331    1.0000 </r>
       <r>   -6.9081    1.0000 </r>
       <r>   -6.6461    1.0000 </r>
       <r>   -6.0394    1.0000 </r>
       <r>   -4.5590    1.0000 </r>
       <r>   -3.8063    1.0000 </r>
       <r>   -2.4549    1.0000 </r>
       <r>   -1.1152    0.0000 </r>
       <r>    0.2975    0.0000 </r>
       <r>    0.5551    0.0000 </r>
       <r>    1.2647    0.0000 </r>
       <r>    2.3029    0.0000 </r>
       <r>    2.4465    0.0000 </r>
      </set>
      <set comment="kpoint 16">
       <r>  -17.0015    1.0000 </r>
       <r>  -14.5756    1.0000 </r>
       <r>  -11.5047    1.0000 </r>
       <r>   -7.9733    1.0000 </r>
       <r>   -7.0260    1.0000 </r>
       <r>   -6.7652    1.0000 </r>
       <r>   -6.3124    1.0000 </r>
       <r>   -5.0046    1.0000 </r>
       <r>   -3.7811    1.0000 </r>
       <r>   -2.4785    1.0000 </r>
       <r>   -1.0245    0.0000 </r>
       <r>    0.0808    0.0000 </r>
       <r>    1.1522    0.0000 </r>
       <r>    1.8977    0.0000 </r>
       <r>    2.3797    0.0000 </r>
       <r>    2.5839    0.0000 </r>
      </set>
      <set comment="kpoint 17">
       <r>  -16.8290    1.0000 </r>
       <r>  -14.3963    1.0000 </r>
       <r>  -11.6135    1.0000 </r>
       <r>   -7.9538    1.0000 </r>
       <r>   -7.2428    1.0000 </r>
       <r>   -7.1461    1.0000 </r>
       <r>   -6.2583    1.0000 </r>
       <r>   -5.3086    1.0000 </r>
       <r>   -3.7733    1.0000 </r>
       <r>   -2.5420    1.0000 </r>
       <r>   -0.8955    0.0000 </r>
       <r>   -0.3840    0.0000 </r>
       <r>    1.9005    0.0000 </r>
       <r>    2.0656    0.0000 </r>
       <r>    2.2230    0.0000 </r>
       <r>    2.6386    0.0000 </r>
      </set>
      <set comment="kpoint 18">
       <r>  -16.6086    1.0000 </r>
       <r>  -14.1670    1.0000 </r>
       <r>  -11.8010    1.0000 </r>
       <r>   -8.1723    1.0000 </r>
       <r>   -7.4948    1.0000 </r>
       <r>   -7.3778    1.0000 </r>
       <r>   -6.1002    1.0000 </r>
       <r>   -5.4158    1.0000 </r>
       <r>   -3.8109    1.0000 </r>
       <r>   -2.6590    1.0000 </r>
       <r>   -0.7562    0.0000 </r>
       <r>   -0.7280    0.0000 </r>
       <r>    1.3766    0.0000 </r>
       <r>    1.5744    0.0000 </r>
       <r>    2.6987    0.0000 </r>
       <r>    3.0176    0.0000 </r>
      </set>
      <set comment="kpoint 19">
       <r>  -16.3414    1.0000 </r>
       <r>  -13.8896    1.0000 </r>
       <r>  -12.0821    1.0000 </r>
       <r>   -8.6869    1.0000 </r>
       <r>   -7.7140    1.0000 </r>
       <r>   -7.3097    1.0000 </r>
       <r>   -5.9015    1.0000 </r>
       <r>   -5.3853    1.0000 </r>
       <r>   -3.9160    1.0000 </r>
       <r>   -2.8377    1.0000 </r>
       <r>   -0.9758    0.0000 </r>
       <r>   -0.5319    0.0000 </r>
       <r>    0.8292    0.0000 </r>
       <r>    0.9489    0.0000 </r>
       <r>    2.4481    0.0000 </r>
       <r>    3.2640    0.0000 </r>
      </set>
      <set comment="kpoint 20">
       <r>  -16.0290    1.0000 </r>
       <r>  -13.5701    1.0000 </r>
       <r>  -12.4463    1.0000 </r>
       <r>   -9.3065    1.0000 </r>
       <r>   -7.7891    1.0000 </r>
       <r>   -7.1772    1.0000 </r>
       <r>   -5.6816    1.0000 </r>
       <r>   -5.2924    1.0000 </r>
       <r>   -4.0736    1.0000 </r>
       <r>   -3.0739    1.0000 </r>
       <r>   -1.0207    0.0000 </r>
       <r>   -0.3641    0.0000 </r>
       <r>    0.3471    0.0000 </r>
       <r>    0.3924    0.0000 </r>
       <r>    2.0171    0.0000 </r>
       <r>    3.1278    0.0000 </r>
      </set>
      <set comment="kpoint 21">
       <r>  -15.6737    1.0000 </r>
       <r>  -13.2602    1.0000 </r>
       <r>  -12.8186    1.0000 </r>
       <r>   -9.9443    1.0000 </r>
       <r>   -7.7395    1.0000 </r>
       <r>   -7.0578    1.0000 </r>
       <r>   -5.4604    1.0000 </r>
       <r>   -5.1983    1.0000 </r>
       <r>   -4.2153    1.0000 </r>
       <r>   -3.3487    1.0000 </r>
       <r>   -0.9178    0.0000 </r>
       <r>   -0.4555    0.0000 </r>
       <r>   -0.1738    0.0000 </r>
       <r>    0.3150    0.0000 </r>
       <r>    1.5628    0.0000 </r>
       <r>    2.7599    0.0000 </r>
      </set>
      <set comment="kpoint 22">
       <r>  -15.2787    1.0000 </r>
       <r>  -13.4504    1.0000 </r>
       <r>  -12.6797    1.0000 </r>
       <r>  -10.5682    1.0000 </r>
       <r>   -7.5991    1.0000 </r>
       <r>   -7.0059    1.0000 </r>
       <r>   -5.2663    1.0000 </r>
       <r>   -5.1417    1.0000 </r>
       <r>   -4.2617    1.0000 </r>
       <r>   -3.6309    1.0000 </r>
       <r>   -0.7997    0.0000 </r>
       <r>   -0.7486    0.0000 </r>
       <r>   -0.4819    0.0000 </r>
       <r>    0.5294    0.0000 </r>
       <r>    1.1424    0.0000 </r>
       <r>    2.3333    0.0000 </r>
      </set>
      <set comment="kpoint 23">
       <r>  -14.8484    1.0000 </r>
       <r>  -13.9144    1.0000 </r>
       <r>  -12.2317    1.0000 </r>
       <r>  -11.1630    1.0000 </r>
       <r>   -7.4072    1.0000 </r>
       <r>   -7.0592    1.0000 </r>
       <r>   -5.1358    1.0000 </r>
       <r>   -5.1090    1.0000 </r>
       <r>   -4.2026    1.0000 </r>
       <r>   -3.8823    1.0000 </r>
       <r>   -0.9789    0.0000 </r>
       <r>   -0.9669    0.0000 </r>
       <r>   -0.2733    0.0000 </r>
       <r>    0.4772    0.0000 </r>
       <r>    1.0988    0.0000 </r>
       <r>    1.8895    0.0000 </r>
      </set>
      <set comment="kpoint 24">
       <r>  -14.3898    1.0000 </r>
       <r>  -14.3898    1.0000 </r>
       <r>  -11.7200    1.0000 </r>
       <r>  -11.7200    1.0000 </r>
       <r>   -7.2092    1.0000 </r>
       <r>   -7.2092    1.0000 </r>
       <r>   -5.0921    1.0000 </r>
       <r>   -5.0921    1.0000 </r>
       <r>   -4.0739    1.0000 </r>
       <r>   -4.0739    1.0000 </r>
       <r>   -1.0599    0.0000 </r>
       <r>   -1.0599    0.0000 </r>
       <r>    0.0957    0.0000 </r>
       <r>    0.0957    0.0000 </r>
       <r>    1.4598    0.0000 </r>
       <r>    1.4598    0.0000 </r>
      </set>
      <set comment="kpoint 25">
       <r>  -14.8484    1.0000 </r>
       <r>  -13.9144    1.0000 </r>
       <r>  -12.2317    1.0000 </r>
       <r>  -11.1630    1.0000 </r>
       <r>   -7.4072    1.0000 </r>
       <r>   -7.0592    1.0000 </r>
       <r>   -5.1358    1.0000 </r>
       <r>   -5.1090    1.0000 </r>
       <r>   -4.2026    1.0000 </r>
       <r>   -3.8823    1.0000 </r>
       <r>   -0.9789    0.0000 </r>
       <r>   -0.9669    0.0000 </r>
       <r>   -0.2733    0.0000 </r>
       <r>    0.4772    0.0000 </r>
       <r>    1.0988    0.0000 </r>
       <r>    1.8895    0.0000 </r>
      </set>
      <set comment="kpoint 26">
       <r>  -15.2787    1.0000 </r>
       <r>  -13.4504    1.0000 </r>
       <r>  -12.6797    1.0000 </r>
       <r>  -10.5682    1.0000 </r>
       <r>   -7.5991    1.0000 </r>
       <r>   -7.0059    1.0000 </r>
       <r>   -5.2663    1.0000 </r>
       <r>   -5.1417    1.0000 </r>
       <r>   -4.2617    1.0000 </r>
       <r>   -3.6309    1.0000 </r>
       <r>   -0.7997    0.0000 </r>
       <r>   -0.7486    0.0000 </r>
       <r>   -0.4819    0.0000 </r>
       <r>    0.5294    0.0000 </r>
       <r>    1.1424    0.0000 </r>
       <r>    2.3333    0.0000 </r>
      </set>
      <set comment="kpoint 27">
       <r>  -15.6737    1.0000 </r>
       <r>  -13.2602    1.0000 </r>
       <r>  -12.8186    1.0000 </r>
       <r>   -9.9443    1.0000 </r>
       <r>   -7.7395    1.0000 </r>
       <r>   -7.0578    1.0000 </r>
       <r>   -5.4604    1.0000 </r>
       <r>   -5.1983    1.0000 </r>
       <r>   -4.2153    1.0000 </r>
       <r>   -3.3487    1.0000 </r>
       <r>   -0.9178    0.0000 </r>
       <r>   -0.4555    0.0000 </r>
       <r>   -0.1738    0.0000 </r>
       <r>    0.3150    0.0000 </r>
       <r>    1.5628    0.0000 </r>
       <r>    2.7599    0.0000 </r>
      </set>
      <set comment="kpoint 28">
       <r>  -16.0290    1.0000 </r>
       <r>  -13.5701    1.0000 </r>
       <r>  -12.4463    1.0000 </r>
       <r>   -9.3065    1.0000 </r>
       <r>   -7.7891    1.0000 </r>
       <r>   -7.1772    1.0000 </r>
       <r>   -5.6816    1.0000 </r>
       <r>   -5.2924    1.0000 </r>
       <r>   -4.0736    1.0000 </r>
       <r>   -3.0739    1.0000 </r>
       <r>   -1.0207    0.0000 </r>
       <r>   -0.3641    0.0000 </r>
       <r>    0.3471    0.0000 </r>
       <r>    0.3924    0.0000 </r>
       <r>    2.0171    0.0000 </r>
       <r>    3.1278    0.0000 </r>
      </set>
      <set comment="kpoint 29">
       <r>  -16.3414    1.0000 </r>
       <r>  -13.8896    1.0000 </r>
       <r>  -12.0821    1.0000 </r>
       <r>   -8.6869    1.0000 </r>
       <r>   -7.7140    1.0000 </r>
       <r>   -7.3097    1.0000 </r>
       <r>   -5.9015    1.0000 </r>
       <r>   -5.3853    1.0000 </r>
       <r>   -3.9160    1.0000 </r>
       <r>   -2.8377    1.0000 </r>
       <r>   -0.9758    0.0000 </r>
       <r>   -0.5319    0.0000 </r>
       <r>    0.8292    0.0000 </r>
       <r>    0.9489    0.0000 </r>
       <r>    2.4481    0.0000 </r>
       <r>    3.2631    0.0000 </r>
      </set>
      <set comment="kpoint 30">
       <r>  -16.6086    1.0000 </r>
       <r>  -14.1670    1.0000 </r>
       <r>  -11.8010    1.0000 </r>
       <r>   -8.1723    1.0000 </r>
       <r>   -7.4948    1.0000 </r>
       <r>   -7.3778    1.0000 </r>
       <r>   -6.1002    1.0000 </r>
       <r>   -5.4158    1.0000 </r>
       <r>   -3.8109    1.0000 </r>
       <r>   -2.6590    1.0000 </r>
       <r>   -0.7562    0.0000 </r>
       <r>   -0.7280    0.0000 </r>
       <r>    1.3766    0.0000 </r>
       <r>    1.5744    0.0000 </r>
       <r>    2.6987    0.0000 </r>
       <r>    3.0243    0.0000 </r>
      </set>
      <set comment="kpoint 31">
       <r>  -16.8290    1.0000 </r>
       <r>  -14.3963    1.0000 </r>
       <r>  -11.6135    1.0000 </r>
       <r>   -7.9538    1.0000 </r>
       <r>   -7.2428    1.0000 </r>
       <r>   -7.1461    1.0000 </r>
       <r>   -6.2583    1.0000 </r>
       <r>   -5.3086    1.0000 </r>
       <r>   -3.7733    1.0000 </r>
       <r>   -2.5420    1.0000 </r>
       <r>   -0.8955    0.0000 </r>
       <r>   -0.3840    0.0000 </r>
       <r>    1.9005    0.0000 </r>
       <r>    2.0656    0.0000 </r>
       <r>    2.2230    0.0000 </r>
       <r>    2.6386    0.0000 </r>
      </set>
      <set comment="kpoint 32">
       <r>  -17.0015    1.0000 </r>
       <r>  -14.5756    1.0000 </r>
       <r>  -11.5047    1.0000 </r>
       <r>   -7.9733    1.0000 </r>
       <r>   -7.0260    1.0000 </r>
       <r>   -6.7652    1.0000 </r>
       <r>   -6.3124    1.0000 </r>
       <r>   -5.0046    1.0000 </r>
       <r>   -3.7811    1.0000 </r>
       <r>   -2.4785    1.0000 </r>
       <r>   -1.0245    0.0000 </r>
       <r>    0.0808    0.0000 </r>
       <r>    1.1522    0.0000 </r>
       <r>    1.8977    0.0000 </r>
       <r>    2.3797    0.0000 </r>
       <r>    2.5839    0.0000 </r>
      </set>
      <set comment="kpoint 33">
       <r>  -17.1252    1.0000 </r>
       <r>  -14.7042    1.0000 </r>
       <r>  -11.4494    1.0000 </r>
       <r>   -8.0331    1.0000 </r>
       <r>   -6.9081    1.0000 </r>
       <r>   -6.6461    1.0000 </r>
       <r>   -6.0394    1.0000 </r>
       <r>   -4.5590    1.0000 </r>
       <r>   -3.8063    1.0000 </r>
       <r>   -2.4549    1.0000 </r>
       <r>   -1.1152    0.0000 </r>
       <r>    0.2975    0.0000 </r>
       <r>    0.5551    0.0000 </r>
       <r>    1.2647    0.0000 </r>
       <r>    2.3029    0.0000 </r>
       <r>    2.4465    0.0000 </r>
      </set>
      <set comment="kpoint 34">
       <r>  -17.1997    1.0000 </r>
       <r>  -14.7814    1.0000 </r>
       <r>  -11.4254    1.0000 </r>
       <r>   -8.0776    1.0000 </r>
       <r>   -6.8655    1.0000 </r>
       <r>   -6.6720    1.0000 </r>
       <r>   -5.6705    1.0000 </r>
       <r>   -4.1423    1.0000 </r>
       <r>   -3.8301    1.0000 </r>
       <r>   -2.4556    1.0000 </r>
       <r>   -1.1704    0.0000 </r>
       <r>   -0.3107    0.0000 </r>
       <r>    0.6784    0.0000 </r>
       <r>    0.9639    0.0000 </r>
       <r>    2.2316    0.0000 </r>
       <r>    2.3636    0.0000 </r>
      </set>
      <set comment="kpoint 35">
       <r>  -17.1599    1.0000 </r>
       <r>  -14.8961    1.0000 </r>
       <r>  -11.4385    1.0000 </r>
       <r>   -8.4435    1.0000 </r>
       <r>   -6.6729    1.0000 </r>
       <r>   -6.4147    1.0000 </r>
       <r>   -5.4640    1.0000 </r>
       <r>   -4.0071    1.0000 </r>
       <r>   -3.5770    1.0000 </r>
       <r>   -2.8638    1.0000 </r>
       <r>   -0.8283    0.0000 </r>
       <r>   -0.4855    0.0000 </r>
       <r>    0.3297    0.0000 </r>
       <r>    1.0714    0.0000 </r>
       <r>    2.3774    0.0000 </r>
       <r>    2.4270    0.0000 </r>
      </set>
      <set comment="kpoint 36">
       <r>  -17.1351    1.0000 </r>
       <r>  -14.8707    1.0000 </r>
       <r>  -11.4417    1.0000 </r>
       <r>   -8.4308    1.0000 </r>
       <r>   -6.6745    1.0000 </r>
       <r>   -6.4277    1.0000 </r>
       <r>   -5.5950    1.0000 </r>
       <r>   -4.1969    1.0000 </r>
       <r>   -3.5703    1.0000 </r>
       <r>   -2.8554    1.0000 </r>
       <r>   -0.8139    0.0000 </r>
       <r>   -0.2601    0.0000 </r>
       <r>    0.5382    0.0000 </r>
       <r>    0.9490    0.0000 </r>
       <r>    2.3990    0.0000 </r>
       <r>    2.4545    0.0000 </r>
      </set>
      <set comment="kpoint 37">
       <r>  -17.0608    1.0000 </r>
       <r>  -14.7947    1.0000 </r>
       <r>  -11.4557    1.0000 </r>
       <r>   -8.3965    1.0000 </r>
       <r>   -6.6920    1.0000 </r>
       <r>   -6.5279    1.0000 </r>
       <r>   -5.8447    1.0000 </r>
       <r>   -4.6383    1.0000 </r>
       <r>   -3.5666    1.0000 </r>
       <r>   -2.8397    1.0000 </r>
       <r>   -0.7746    0.0000 </r>
       <r>    0.3455    0.0000 </r>
       <r>    0.5192    0.0000 </r>
       <r>    1.1895    0.0000 </r>
       <r>    2.4607    0.0000 </r>
       <r>    2.5366    0.0000 </r>
      </set>
      <set comment="kpoint 38">
       <r>  -16.9374    1.0000 </r>
       <r>  -14.6685    1.0000 </r>
       <r>  -11.4939    1.0000 </r>
       <r>   -8.3561    1.0000 </r>
       <r>   -6.8450    1.0000 </r>
       <r>   -6.7689    1.0000 </r>
       <r>   -5.9363    1.0000 </r>
       <r>   -5.1116    1.0000 </r>
       <r>   -3.5825    1.0000 </r>
       <r>   -2.8321    1.0000 </r>
       <r>   -0.7111    0.0000 </r>
       <r>    0.1078    0.0000 </r>
       <r>    1.1835    0.0000 </r>
       <r>    1.8553    0.0000 </r>
       <r>    2.2501    0.0000 </r>
       <r>    2.5647    0.0000 </r>
      </set>
      <set comment="kpoint 39">
       <r>  -16.7654    1.0000 </r>
       <r>  -14.4932    1.0000 </r>
       <r>  -11.5787    1.0000 </r>
       <r>   -8.3532    1.0000 </r>
       <r>   -7.2647    1.0000 </r>
       <r>   -6.9593    1.0000 </r>
       <r>   -5.8710    1.0000 </r>
       <r>   -5.4281    1.0000 </r>
       <r>   -3.6387    1.0000 </r>
       <r>   -2.8479    1.0000 </r>
       <r>   -0.6223    0.0000 </r>
       <r>   -0.2805    0.0000 </r>
       <r>    1.5457    0.0000 </r>
       <r>    2.2001    0.0000 </r>
       <r>    2.2947    0.0000 </r>
       <r>    2.6768    0.0000 </r>
      </set>
      <set comment="kpoint 40">
       <r>  -16.5456    1.0000 </r>
       <r>  -14.2705    1.0000 </r>
       <r>  -11.7370    1.0000 </r>
       <r>   -8.4936    1.0000 </r>
       <r>   -7.6246    1.0000 </r>
       <r>   -7.1820    1.0000 </r>
       <r>   -5.7399    1.0000 </r>
       <r>   -5.5290    1.0000 </r>
       <r>   -3.7562    1.0000 </r>
       <r>   -2.9035    1.0000 </r>
       <r>   -0.5593    0.0000 </r>
       <r>   -0.5068    0.0000 </r>
       <r>    1.0011    0.0000 </r>
       <r>    1.8348    0.0000 </r>
       <r>    2.7456    0.0000 </r>
       <r>    3.0862    0.0000 </r>
      </set>
      <set comment="kpoint 41">
       <r>  -16.2794    1.0000 </r>
       <r>  -14.0049    1.0000 </r>
       <r>  -11.9857    1.0000 </r>
       <r>   -8.8766    1.0000 </r>
       <r>   -7.8523    1.0000 </r>
       <r>   -7.2523    1.0000 </r>
       <r>   -5.5806    1.0000 </r>
       <r>   -5.5020    1.0000 </r>
       <r>   -3.9307    1.0000 </r>
       <r>   -3.0119    1.0000 </r>
       <r>   -0.6865    0.0000 </r>
       <r>   -0.3692    0.0000 </r>
       <r>    0.4701    0.0000 </r>
       <r>    1.2408    0.0000 </r>
       <r>    2.6661    0.0000 </r>
       <r>    3.1898    0.0000 </r>
      </set>
      <set comment="kpoint 42">
       <r>  -15.9686    1.0000 </r>
       <r>  -13.7102    1.0000 </r>
       <r>  -12.3106    1.0000 </r>
       <r>   -9.4257    1.0000 </r>
       <r>   -7.9297    1.0000 </r>
       <r>   -7.1829    1.0000 </r>
       <r>   -5.4490    1.0000 </r>
       <r>   -5.4194    1.0000 </r>
       <r>   -4.1071    1.0000 </r>
       <r>   -3.1714    1.0000 </r>
       <r>   -0.6659    0.0000 </r>
       <r>   -0.3003    0.0000 </r>
       <r>    0.1002    0.0000 </r>
       <r>    0.6432    0.0000 </r>
       <r>    2.4121    0.0000 </r>
       <r>    2.9747    0.0000 </r>
      </set>
      <set comment="kpoint 43">
       <r>  -15.6155    1.0000 </r>
       <r>  -13.4530    1.0000 </r>
       <r>  -12.6224    1.0000 </r>
       <r>  -10.0297    1.0000 </r>
       <r>   -7.8738    1.0000 </r>
       <r>   -7.0775    1.0000 </r>
       <r>   -5.4421    1.0000 </r>
       <r>   -5.2893    1.0000 </r>
       <r>   -4.1927    1.0000 </r>
       <r>   -3.3598    1.0000 </r>
       <r>   -0.5745    0.0000 </r>
       <r>   -0.5512    0.0000 </r>
       <r>    0.1284    0.0000 </r>
       <r>    0.1887    0.0000 </r>
       <r>    2.0577    0.0000 </r>
       <r>    2.6280    0.0000 </r>
      </set>
      <set comment="kpoint 44">
       <r>  -15.2241    1.0000 </r>
       <r>  -13.5178    1.0000 </r>
       <r>  -12.6061    1.0000 </r>
       <r>  -10.6340    1.0000 </r>
       <r>   -7.7185    1.0000 </r>
       <r>   -7.0254    1.0000 </r>
       <r>   -5.4737    1.0000 </r>
       <r>   -5.2297    1.0000 </r>
       <r>   -4.1426    1.0000 </r>
       <r>   -3.5420    1.0000 </r>
       <r>   -0.8768    0.0000 </r>
       <r>   -0.5861    0.0000 </r>
       <r>   -0.0573    0.0000 </r>
       <r>    0.4342    0.0000 </r>
       <r>    1.6680    0.0000 </r>
       <r>    2.2260    0.0000 </r>
      </set>
      <set comment="kpoint 45">
       <r>  -14.8000    1.0000 </r>
       <r>  -13.9032    1.0000 </r>
       <r>  -12.2371    1.0000 </r>
       <r>  -11.2137    1.0000 </r>
       <r>   -7.5029    1.0000 </r>
       <r>   -7.0930    1.0000 </r>
       <r>   -5.4560    1.0000 </r>
       <r>   -5.2640    1.0000 </r>
       <r>   -4.0059    1.0000 </r>
       <r>   -3.6994    1.0000 </r>
       <r>   -1.0497    0.0000 </r>
       <r>   -0.8629    0.0000 </r>
       <r>    0.1811    0.0000 </r>
       <r>    0.6247    0.0000 </r>
       <r>    1.3776    0.0000 </r>
       <r>    1.8190    0.0000 </r>
      </set>
      <set comment="kpoint 46">
       <r>  -14.3529    1.0000 </r>
       <r>  -14.3529    1.0000 </r>
       <r>  -11.7540    1.0000 </r>
       <r>  -11.7539    1.0000 </r>
       <r>   -7.2737    1.0000 </r>
       <r>   -7.2737    1.0000 </r>
       <r>   -5.3642    1.0000 </r>
       <r>   -5.3642    1.0000 </r>
       <r>   -3.8489    1.0000 </r>
       <r>   -3.8489    1.0000 </r>
       <r>   -1.0450    0.0000 </r>
       <r>   -1.0450    0.0000 </r>
       <r>    0.4918    0.0000 </r>
       <r>    0.4918    0.0000 </r>
       <r>    1.4708    0.0000 </r>
       <r>    1.4708    0.0000 </r>
      </set>
      <set comment="kpoint 47">
       <r>  -14.8000    1.0000 </r>
       <r>  -13.9032    1.0000 </r>
       <r>  -12.2371    1.0000 </r>
       <r>  -11.2137    1.0000 </r>
       <r>   -7.5029    1.0000 </r>
       <r>   -7.0930    1.0000 </r>
       <r>   -5.4560    1.0000 </r>
       <r>   -5.2640    1.0000 </r>
       <r>   -4.0059    1.0000 </r>
       <r>   -3.6994    1.0000 </r>
       <r>   -1.0497    0.0000 </r>
       <r>   -0.8629    0.0000 </r>
       <r>    0.1811    0.0000 </r>
       <r>    0.6247    0.0000 </r>
       <r>    1.3776    0.0000 </r>
       <r>    1.8190    0.0000 </r>
      </set>
      <set comment="kpoint 48">
       <r>  -15.2241    1.0000 </r>
       <r>  -13.5178    1.0000 </r>
       <r>  -12.6061    1.0000 </r>
       <r>  -10.6340    1.0000 </r>
       <r>   -7.7185    1.0000 </r>
[...]
       <r>    3.3970    0.0000 </r>
       <r>    3.4114    0.0000 </r>
      </set>
      <set comment="kpoint 161">
       <r>  -15.4224    1.0000 </r>
       <r>  -15.1708    1.0000 </r>
       <r>  -10.8329    1.0000 </r>
       <r>  -10.5068    1.0000 </r>
       <r>   -7.8656    1.0000 </r>
       <r>   -7.7049    1.0000 </r>
       <r>   -5.1977    1.0000 </r>
       <r>   -4.9570    1.0000 </r>
       <r>   -3.8081    1.0000 </r>
       <r>   -3.7448    1.0000 </r>
       <r>    0.3217    0.0000 </r>
       <r>    0.7039    0.0000 </r>
       <r>    1.1819    0.0000 </r>
       <r>    1.4980    0.0000 </r>
       <r>    3.3495    0.0000 </r>
       <r>    3.3938    0.0000 </r>
      </set>
      <set comment="kpoint 162">
       <r>  -15.6739    1.0000 </r>
       <r>  -15.4184    1.0000 </r>
       <r>  -10.7266    1.0000 </r>
       <r>  -10.3974    1.0000 </r>
       <r>   -7.4910    1.0000 </r>
       <r>   -7.3231    1.0000 </r>
       <r>   -5.1312    1.0000 </r>
       <r>   -4.8379    1.0000 </r>
       <r>   -3.6938    1.0000 </r>
       <r>   -3.6381    1.0000 </r>
       <r>    0.3549    0.0000 </r>
       <r>    0.6435    0.0000 </r>
       <r>    1.2503    0.0000 </r>
       <r>    1.6014    0.0000 </r>
       <r>    3.0296    0.0000 </r>
       <r>    3.2926    0.0000 </r>
      </set>
      <set comment="kpoint 163">
       <r>  -15.8842    1.0000 </r>
       <r>  -15.6265    1.0000 </r>
       <r>  -10.7136    1.0000 </r>
       <r>  -10.3887    1.0000 </r>
       <r>   -6.9519    1.0000 </r>
       <r>   -6.7717    1.0000 </r>
       <r>   -5.1699    1.0000 </r>
       <r>   -4.8443    1.0000 </r>
       <r>   -3.5905    1.0000 </r>
       <r>   -3.4138    1.0000 </r>
       <r>    0.4778    0.0000 </r>
       <r>    0.6502    0.0000 </r>
       <r>    1.2311    0.0000 </r>
       <r>    1.6040    0.0000 </r>
       <r>    2.4232    0.0000 </r>
       <r>    2.6568    0.0000 </r>
      </set>
      <set comment="kpoint 164">
       <r>  -16.0502    1.0000 </r>
       <r>  -15.7912    1.0000 </r>
       <r>  -10.7453    1.0000 </r>
       <r>  -10.4258    1.0000 </r>
       <r>   -6.3185    1.0000 </r>
       <r>   -6.1276    1.0000 </r>
       <r>   -5.2405    1.0000 </r>
       <r>   -4.9006    1.0000 </r>
       <r>   -3.5228    1.0000 </r>
       <r>   -3.2347    1.0000 </r>
       <r>    0.6263    0.0000 </r>
       <r>    0.6804    0.0000 </r>
       <r>    1.1414    0.0000 </r>
       <r>    1.4622    0.0000 </r>
       <r>    1.8349    0.0000 </r>
       <r>    1.9437    0.0000 </r>
      </set>
      <set comment="kpoint 165">
       <r>  -16.1698    1.0000 </r>
       <r>  -15.9101    1.0000 </r>
       <r>  -10.7866    1.0000 </r>
       <r>  -10.4713    1.0000 </r>
       <r>   -5.6639    1.0000 </r>
       <r>   -5.4778    1.0000 </r>
       <r>   -5.2962    1.0000 </r>
       <r>   -4.9599    1.0000 </r>
       <r>   -3.5430    1.0000 </r>
       <r>   -3.1588    1.0000 </r>
       <r>    0.4769    0.0000 </r>
       <r>    0.4790    0.0000 </r>
       <r>    1.1311    0.0000 </r>
       <r>    1.2388    0.0000 </r>
       <r>    1.5665    0.0000 </r>
       <r>    1.6419    0.0000 </r>
      </set>
      <set comment="kpoint 166">
       <r>  -16.2420    1.0000 </r>
       <r>  -15.9819    1.0000 </r>
       <r>  -10.8176    1.0000 </r>
       <r>  -10.5049    1.0000 </r>
       <r>   -5.3587    1.0000 </r>
       <r>   -5.0896    1.0000 </r>
       <r>   -5.0010    1.0000 </r>
       <r>   -4.8955    1.0000 </r>
       <r>   -3.6611    1.0000 </r>
       <r>   -3.1980    1.0000 </r>
       <r>    0.0662    0.0000 </r>
       <r>    0.0936    0.0000 </r>
       <r>    1.2016    0.0000 </r>
       <r>    1.2918    0.0000 </r>
       <r>    1.5387    0.0000 </r>
       <r>    1.5724    0.0000 </r>
      </set>
     </set>
    </set>
   </array>
  </eigenvalues>
  <separator name="orbital magnetization" >
   <v name="MAGDIPOLOUT">      0.00000000      0.00000000      0.00000000</v>
  </separator>
  <dos>
   <i name="efermi">     -2.11454429 </i>
   <total>
    <array>
     <dimension dim="1">gridpoints</dimension>
     <dimension dim="2">spin</dimension>
     <field>energy</field>
     <field>total</field>
     <field>integrated</field>
     <set>
      <set comment="spin 1">
       <r>   -18.2858     0.0000     0.0000 </r>
       <r>   -18.2095     0.0000     0.0000 </r>
       <r>   -18.1333     0.0000     0.0000 </r>
       <r>   -18.0571     0.0000     0.0000 </r>
       <r>   -17.9808     0.0000     0.0000 </r>
       <r>   -17.9046     0.0000     0.0000 </r>
       <r>   -17.8284     0.0000     0.0000 </r>
       <r>   -17.7521     0.0000     0.0000 </r>
       <r>   -17.6759     0.0000     0.0000 </r>
       <r>   -17.5996     0.0000     0.0000 </r>
       <r>   -17.5234     0.0000     0.0000 </r>
       <r>   -17.4472     0.0000     0.0000 </r>
       <r>   -17.3709     0.0000     0.0000 </r>
       <r>   -17.2947     0.0000     0.0000 </r>
       <r>   -17.2185     0.3049     0.0232 </r>
       <r>   -17.1422     0.7865     0.0832 </r>
       <r>   -17.0660     0.7229     0.1383 </r>
       <r>   -16.9898     1.0622     0.2193 </r>
       <r>   -16.9135     0.7419     0.2758 </r>
       <r>   -16.8373     0.7729     0.3348 </r>
       <r>   -16.7611     0.9738     0.4090 </r>
       <r>   -16.6848     0.7373     0.4652 </r>
       <r>   -16.6086     1.0875     0.5481 </r>
       <r>   -16.5324     0.5225     0.5879 </r>
       <r>   -16.4561     1.1544     0.6760 </r>
       <r>   -16.3799     0.6074     0.7223 </r>
       <r>   -16.3037     0.9692     0.7961 </r>
       <r>   -16.2274     1.1945     0.8872 </r>
       <r>   -16.1512     0.6574     0.9373 </r>
       <r>   -16.0750     0.6825     0.9893 </r>
       <r>   -15.9987     1.2407     1.0839 </r>
       <r>   -15.9225     0.7729     1.1429 </r>
       <r>   -15.8463     1.4038     1.2499 </r>
       <r>   -15.7700     0.3613     1.2774 </r>
       <r>   -15.6938     0.9184     1.3474 </r>
       <r>   -15.6176     1.6880     1.4761 </r>
       <r>   -15.5413     0.6254     1.5238 </r>
       <r>   -15.4651     0.8049     1.5851 </r>
       <r>   -15.3889     1.1787     1.6750 </r>
       <r>   -15.3126     1.0277     1.7533 </r>
       <r>   -15.2364     1.0227     1.8313 </r>
       <r>   -15.1601     1.2723     1.9283 </r>
       <r>   -15.0839     1.4485     2.0387 </r>
       <r>   -15.0077     1.2427     2.1335 </r>
       <r>   -14.9314     0.5132     2.1726 </r>
       <r>   -14.8552     2.0492     2.3288 </r>
       <r>   -14.7790     2.1208     2.4905 </r>
       <r>   -14.7027     0.9352     2.5618 </r>
       <r>   -14.6265     2.1151     2.7230 </r>
       <r>   -14.5503     1.0522     2.8032 </r>
       <r>   -14.4740     1.0058     2.8799 </r>
       <r>   -14.3978     0.9369     2.9513 </r>
       <r>   -14.3216     2.0306     3.1061 </r>
       <r>   -14.2453     0.9338     3.1773 </r>
       <r>   -14.1691     1.0449     3.2570 </r>
       <r>   -14.0929     1.8665     3.3993 </r>
       <r>   -14.0166     0.8011     3.4604 </r>
       <r>   -13.9404     0.6812     3.5123 </r>
       <r>   -13.8642     2.8734     3.7313 </r>
       <r>   -13.7879     0.1937     3.7461 </r>
       <r>   -13.7117     0.4556     3.7808 </r>
       <r>   -13.6355     0.5398     3.8220 </r>
       <r>   -13.5592     0.5166     3.8614 </r>
       <r>   -13.4830     0.5519     3.9034 </r>
       <r>   -13.4068     0.7770     3.9627 </r>
       <r>   -13.3305     0.0127     3.9636 </r>
       <r>   -13.2543     0.2105     3.9797 </r>
       <r>   -13.1781     0.1076     3.9879 </r>
       <r>   -13.1018     0.1573     3.9999 </r>
       <r>   -13.0256     0.0015     4.0000 </r>
       <r>   -12.9494     0.0597     4.0045 </r>
       <r>   -12.8731     0.0994     4.0121 </r>
       <r>   -12.7969     0.2981     4.0348 </r>
       <r>   -12.7206     0.0430     4.0381 </r>
       <r>   -12.6444     0.4719     4.0741 </r>
       <r>   -12.5682     0.6168     4.1211 </r>
       <r>   -12.4919     0.2688     4.1416 </r>
       <r>   -12.4157     0.6150     4.1885 </r>
       <r>   -12.3395     0.4384     4.2219 </r>
       <r>   -12.2632     0.4624     4.2572 </r>
       <r>   -12.1870     1.7271     4.3888 </r>
       <r>   -12.1108     1.2336     4.4829 </r>
       <r>   -12.0345     0.9440     4.5549 </r>
       <r>   -11.9583     1.2290     4.6485 </r>
       <r>   -11.8821     1.0518     4.7287 </r>
       <r>   -11.8058     1.2153     4.8214 </r>
       <r>   -11.7296     1.3177     4.9218 </r>
       <r>   -11.6534     1.1813     5.0119 </r>
       <r>   -11.5771     1.5584     5.1307 </r>
       <r>   -11.5009     1.3408     5.2329 </r>
       <r>   -11.4247     3.3546     5.4886 </r>
       <r>   -11.3484     3.1734     5.7306 </r>
       <r>   -11.2722     0.9679     5.8044 </r>
       <r>   -11.1960     1.7854     5.9405 </r>
       <r>   -11.1197     0.9608     6.0137 </r>
       <r>   -11.0435     1.4880     6.1271 </r>
       <r>   -10.9673     1.1006     6.2111 </r>
       <r>   -10.8910     0.2136     6.2273 </r>
       <r>   -10.8148     1.0439     6.3069 </r>
       <r>   -10.7386     1.2867     6.4050 </r>
       <r>   -10.6623     0.8159     6.4672 </r>
       <r>   -10.5861     0.5266     6.5074 </r>
       <r>   -10.5099     0.9369     6.5788 </r>
       <r>   -10.4336     1.0892     6.6618 </r>
       <r>   -10.3574     1.1087     6.7463 </r>
       <r>   -10.2811     0.1474     6.7576 </r>
       <r>   -10.2049     0.0026     6.7578 </r>
       <r>   -10.1287     1.3064     6.8574 </r>
       <r>   -10.0524     0.7333     6.9133 </r>
       <r>    -9.9762     0.9824     6.9882 </r>
       <r>    -9.9000     0.4524     7.0226 </r>
       <r>    -9.8237     0.3999     7.0531 </r>
       <r>    -9.7475     0.4112     7.0845 </r>
       <r>    -9.6713     0.7231     7.1396 </r>
       <r>    -9.5950     1.1557     7.2277 </r>
       <r>    -9.5188     0.0340     7.2303 </r>
       <r>    -9.4426     0.3422     7.2564 </r>
       <r>    -9.3663     0.2938     7.2788 </r>
       <r>    -9.2901     0.7248     7.3340 </r>
       <r>    -9.2139     1.2230     7.4273 </r>
       <r>    -9.1376     0.5192     7.4669 </r>
       <r>    -9.0614     0.0770     7.4727 </r>
       <r>    -8.9852     0.0000     7.4727 </r>
       <r>    -8.9089     0.0044     7.4731 </r>
       <r>    -8.8327     1.1921     7.5639 </r>
       <r>    -8.7565     0.8405     7.6280 </r>
       <r>    -8.6802     0.2467     7.6468 </r>
       <r>    -8.6040     0.2314     7.6645 </r>
       <r>    -8.5278     0.0314     7.6669 </r>
       <r>    -8.4515     0.3829     7.6960 </r>
       <r>    -8.3753     0.7530     7.7534 </r>
       <r>    -8.2991     0.6106     7.8000 </r>
       <r>    -8.2228     0.0016     7.8001 </r>
       <r>    -8.1466     1.1341     7.8866 </r>
       <r>    -8.0704     1.6497     8.0123 </r>
       <r>    -7.9941     2.1948     8.1797 </r>
       <r>    -7.9179     2.5701     8.3756 </r>
       <r>    -7.8417     1.8587     8.5173 </r>
       <r>    -7.7654     1.3496     8.6202 </r>
       <r>    -7.6892     2.6456     8.8219 </r>
       <r>    -7.6129     2.4519     9.0088 </r>
       <r>    -7.5367     1.1323     9.0951 </r>
       <r>    -7.4605     2.1010     9.2553 </r>
       <r>    -7.3842     1.4943     9.3692 </r>
       <r>    -7.3080     3.2287     9.6153 </r>
       <r>    -7.2318     2.5741     9.8116 </r>
       <r>    -7.1555     3.8707    10.1066 </r>
       <r>    -7.0793     2.7324    10.3149 </r>
       <r>    -7.0031     3.1313    10.5537 </r>
       <r>    -6.9268     1.5641    10.6729 </r>
       <r>    -6.8506     0.9016    10.7416 </r>
       <r>    -6.7744     1.4336    10.8509 </r>
       <r>    -6.6981     1.4656    10.9626 </r>
       <r>    -6.6219     2.4568    11.1499 </r>
       <r>    -6.5457     1.1218    11.2354 </r>
       <r>    -6.4694     2.0745    11.3936 </r>
       <r>    -6.3932     1.4940    11.5075 </r>
       <r>    -6.3170     1.1452    11.5948 </r>
       <r>    -6.2407     1.6700    11.7221 </r>
       <r>    -6.1645     1.9099    11.8677 </r>
       <r>    -6.0883     1.1329    11.9541 </r>
       <r>    -6.0120     1.7605    12.0883 </r>
       <r>    -5.9358     2.4604    12.2758 </r>
       <r>    -5.8596     1.4994    12.3901 </r>
       <r>    -5.7833     1.7952    12.5270 </r>
       <r>    -5.7071     1.4877    12.6404 </r>
       <r>    -5.6309     4.1834    12.9593 </r>
       <r>    -5.5546     3.3488    13.2146 </r>
       <r>    -5.4784     2.9014    13.4358 </r>
       <r>    -5.4022     5.0986    13.8245 </r>
       <r>    -5.3259     2.5456    14.0186 </r>
       <r>    -5.2497     3.5709    14.2908 </r>
       <r>    -5.1734     2.9749    14.5176 </r>
       <r>    -5.0972     3.3512    14.7730 </r>
       <r>    -5.0210     1.8024    14.9104 </r>
       <r>    -4.9447     2.2848    15.0846 </r>
       <r>    -4.8685     2.2281    15.2545 </r>
       <r>    -4.7923     1.4271    15.3633 </r>
       <r>    -4.7160     0.9578    15.4363 </r>
       <r>    -4.6398     0.9347    15.5076 </r>
       <r>    -4.5636     1.3349    15.6093 </r>
       <r>    -4.4873     2.0744    15.7675 </r>
       <r>    -4.4111     0.7937    15.8280 </r>
       <r>    -4.3349     0.5762    15.8719 </r>
       <r>    -4.2586     0.8184    15.9343 </r>
       <r>    -4.1824     2.3026    16.1098 </r>
       <r>    -4.1062     2.7370    16.3185 </r>
       <r>    -4.0299     2.4069    16.5020 </r>
       <r>    -3.9537     2.3325    16.6798 </r>
       <r>    -3.8775     3.3064    16.9318 </r>
       <r>    -3.8012     3.8445    17.2249 </r>
       <r>    -3.7250     3.2667    17.4740 </r>
       <r>    -3.6488     3.9238    17.7731 </r>
       <r>    -3.5725     3.4991    18.0398 </r>
       <r>    -3.4963     3.2337    18.2864 </r>
       <r>    -3.4201     2.2386    18.4570 </r>
       <r>    -3.3438     4.0089    18.7626 </r>
       <r>    -3.2676     3.8610    19.0570 </r>
       <r>    -3.1914     2.6898    19.2620 </r>
       <r>    -3.1151     1.0236    19.3401 </r>
       <r>    -3.0389     1.0377    19.4192 </r>
       <r>    -2.9627     0.7087    19.4732 </r>
       <r>    -2.8864     1.3587    19.5768 </r>
       <r>    -2.8102     2.2674    19.7496 </r>
       <r>    -2.7339     0.6539    19.7995 </r>
       <r>    -2.6577     0.1775    19.8130 </r>
       <r>    -2.5815     0.1625    19.8254 </r>
       <r>    -2.5052     0.4696    19.8612 </r>
       <r>    -2.4290     1.1010    19.9452 </r>
       <r>    -2.3528     0.1637    19.9576 </r>
       <r>    -2.2765     0.2079    19.9735 </r>
       <r>    -2.2003     0.3478    20.0000 </r>
       <r>    -2.1241     0.0000    20.0000 </r>
       <r>    -2.0478     0.0000    20.0000 </r>
       <r>    -1.9716     0.0000    20.0000 </r>
       <r>    -1.8954     0.0000    20.0000 </r>
       <r>    -1.8191     0.0000    20.0000 </r>
       <r>    -1.7429     0.0000    20.0000 </r>
       <r>    -1.6667     0.0000    20.0000 </r>
       <r>    -1.5904     0.0000    20.0000 </r>
       <r>    -1.5142     0.0000    20.0000 </r>
       <r>    -1.4380     0.0000    20.0000 </r>
       <r>    -1.3617     0.1340    20.0102 </r>
       <r>    -1.2855     0.1936    20.0250 </r>
       <r>    -1.2093     0.0851    20.0315 </r>
       <r>    -1.1330     0.7929    20.0919 </r>
       <r>    -1.0568     0.8618    20.1576 </r>
       <r>    -0.9806     2.0536    20.3142 </r>
       <r>    -0.9043     1.7234    20.4455 </r>
       <r>    -0.8281     1.5907    20.5668 </r>
       <r>    -0.7519     1.9437    20.7150 </r>
       <r>    -0.6756     2.1274    20.8772 </r>
       <r>    -0.5994     1.2322    20.9711 </r>
       <r>    -0.5232     2.1228    21.1329 </r>
       <r>    -0.4469     2.0180    21.2868 </r>
       <r>    -0.3707     2.5050    21.4777 </r>
       <r>    -0.2944     2.7492    21.6873 </r>
       <r>    -0.2182     2.0982    21.8473 </r>
       <r>    -0.1420     2.6019    22.0456 </r>
       <r>    -0.0657     2.4734    22.2342 </r>
       <r>     0.0105     3.1670    22.4756 </r>
       <r>     0.0867     2.7640    22.6863 </r>
       <r>     0.1630     4.2451    23.0100 </r>
       <r>     0.2392     2.4191    23.1944 </r>
       <r>     0.3154     3.3479    23.4496 </r>
       <r>     0.3917     3.9744    23.7526 </r>
       <r>     0.4679     4.8041    24.1188 </r>
       <r>     0.5441     4.7860    24.4837 </r>
       <r>     0.6204     2.9127    24.7057 </r>
       <r>     0.6966     5.2763    25.1080 </r>
       <r>     0.7728     2.4960    25.2982 </r>
       <r>     0.8491     3.7018    25.5804 </r>
       <r>     0.9253     3.0089    25.8098 </r>
       <r>     1.0015     3.3057    26.0618 </r>
       <r>     1.0778     3.2722    26.3113 </r>
       <r>     1.1540     3.6969    26.5931 </r>
       <r>     1.2302     3.0404    26.8249 </r>
       <r>     1.3065     2.6328    27.0256 </r>
       <r>     1.3827     1.6164    27.1488 </r>
       <r>     1.4589     1.8119    27.2870 </r>
       <r>     1.5352     2.7155    27.4940 </r>
       <r>     1.6114     3.7667    27.7811 </r>
       <r>     1.6876     1.6687    27.9083 </r>
       <r>     1.7639     1.6272    28.0324 </r>
       <r>     1.8401     1.7650    28.1669 </r>
       <r>     1.9163     3.7797    28.4551 </r>
       <r>     1.9926     1.9050    28.6003 </r>
       <r>     2.0688     2.0656    28.7578 </r>
       <r>     2.1451     1.4434    28.8678 </r>
       <r>     2.2213     2.8856    29.0878 </r>
       <r>     2.2975     3.0350    29.3192 </r>
       <r>     2.3738     2.9344    29.5429 </r>
       <r>     2.4500     3.7219    29.8266 </r>
       <r>     2.5262     1.9001    29.9715 </r>
       <r>     2.6025     2.7668    30.1824 </r>
       <r>     2.6787     3.1259    30.4207 </r>
       <r>     2.7549     3.3580    30.6767 </r>
       <r>     2.8312     2.8397    30.8932 </r>
       <r>     2.9074     1.6063    31.0156 </r>
       <r>     2.9836     1.4775    31.1283 </r>
       <r>     3.0599     1.9124    31.2741 </r>
       <r>     3.1361     2.3377    31.4523 </r>
       <r>     3.2123     1.6858    31.5808 </r>
       <r>     3.2886     1.3134    31.6809 </r>
       <r>     3.3648     1.5651    31.8002 </r>
       <r>     3.4410     1.3452    31.9028 </r>
       <r>     3.5173     0.3840    31.9320 </r>
       <r>     3.5935     0.8913    32.0000 </r>
       <r>     3.6697     0.0001    32.0000 </r>
       <r>     3.7460     0.0000    32.0000 </r>
       <r>     3.8222     0.0000    32.0000 </r>
       <r>     3.8984     0.0000    32.0000 </r>
       <r>     3.9747     0.0000    32.0000 </r>
       <r>     4.0509     0.0000    32.0000 </r>
       <r>     4.1271     0.0000    32.0000 </r>
       <r>     4.2034     0.0000    32.0000 </r>
       <r>     4.2796     0.0000    32.0000 </r>
       <r>     4.3558     0.0000    32.0000 </r>
       <r>     4.4321     0.0000    32.0000 </r>
       <r>     4.5083     0.0000    32.0000 </r>
       <r>     4.5845     0.0000    32.0000 </r>
      </set>
     </set>
    </array>
   </total>
  </dos>
 </calculation>
 <structure name="finalpos" >
  <crystal>
   <varray name="basis" >
    <v>       3.28481600       0.00000000       0.00000000 </v>
    <v>       0.00000000       4.60598100      -0.00005300 </v>
    <v>       0.00000000       0.00000000      20.02439000 </v>
   </varray>
   <i name="volume">    302.96501751 </i>
   <varray name="rec_basis" >
    <v>       0.30443105       0.00000000       0.00000000 </v>
    <v>       0.00000000       0.21710902       0.00000000 </v>
    <v>       0.00000000       0.00000057       0.04993910 </v>
   </varray>
  </crystal>
  <varray name="positions" >
   <v>       0.50000000       0.91156024       0.55257221 </v>
   <v>       0.50000000       0.08843976       0.44742779 </v>
   <v>      -0.00000000       0.41155572       0.44742780 </v>
   <v>       0.00000000       0.58844428       0.55257220 </v>
  </varray>
 </structure>
</modeling>
