<?xml version="1.0" encoding="ISO-8859-1"?>
<modeling>
 <generator>
  <i name="program" type="string">vasp </i>
  <i name="version" type="string">5.4.1  </i>
  <i name="subversion" type="string">24Jun15 (build Nov 20 2020 10:29:34) complex                          parallel </i>
  <i name="platform" type="string">IFC91_ompi </i>
  <i name="date" type="string">2021 09 09 </i>
  <i name="time" type="string">14:50:06 </i>
 </generator>
 <incar>
  <i type="string" name="PREC">a</i>
  <i type="string" name="ALGO"> Normal</i>
  <i type="int" name="ISPIN">     1</i>
  <i type="int" name="ICHARG">     2</i>
  <i type="int" name="NELM">   250</i>
  <i type="int" name="NELMDL">    -5</i>
  <i type="int" name="NELMIN">     6</i>
  <i type="int" name="IBRION">     2</i>
  <i name="EDIFF">      0.00001000</i>
  <i name="EDIFFG">     -0.01000000</i>
  <i type="int" name="NSW">   200</i>
  <i type="int" name="ISIF">     2</i>
  <i name="ENCUT">    520.00000000</i>
  <i name="POTIM">      0.30000000</i>
  <i type="logical" name="LREAL"> F  </i>
  <i type="int" name="ISMEAR">     0</i>
  <i name="SIGMA">      0.02000000</i>
  <i type="logical" name="LWAVE"> F  </i>
  <i type="logical" name="LCHARG"> F  </i>
  <i type="logical" name="LAECHG"> F  </i>
  <v type="int" name="KPOINT_BSE">    -1     0     0     0</v>
  <i type="int" name="NELM">   250</i>
 </incar>
 <kpoints>
  <generation param="Gamma">
   <v type="int" name="divisions">      22       15        1 </v>
   <v name="usershift">      0.00000000       0.00000000       0.00000000 </v>
   <v name="genvec1">      0.04545455       0.00000000       0.00000000 </v>
   <v name="genvec2">      0.00000000       0.06666667       0.00000000 </v>
   <v name="genvec3">      0.00000000       0.00000000       1.00000000 </v>
   <v name="shift">      0.00000000       0.00000000       0.00000000 </v>
  </generation>
  <varray name="kpointlist" >
   <v>       0.00000000       0.00000000       0.00000000 </v>
   <v>       0.04545455       0.00000000       0.00000000 </v>
   <v>       0.09090909       0.00000000       0.00000000 </v>
   <v>       0.13636364       0.00000000       0.00000000 </v>
   <v>       0.18181818       0.00000000       0.00000000 </v>
   <v>       0.22727273       0.00000000       0.00000000 </v>
   <v>       0.27272727       0.00000000       0.00000000 </v>
   <v>       0.31818182       0.00000000       0.00000000 </v>
   <v>       0.36363636       0.00000000       0.00000000 </v>
   <v>       0.40909091       0.00000000       0.00000000 </v>
   <v>       0.45454545       0.00000000       0.00000000 </v>
   <v>       0.50000000       0.00000000       0.00000000 </v>
   <v>       0.00000000       0.06666667       0.00000000 </v>
   <v>       0.04545455       0.06666667       0.00000000 </v>
   <v>       0.09090909       0.06666667       0.00000000 </v>
   <v>       0.13636364       0.06666667       0.00000000 </v>
   <v>       0.18181818       0.06666667       0.00000000 </v>
   <v>       0.22727273       0.06666667       0.00000000 </v>
   <v>       0.27272727       0.06666667       0.00000000 </v>
   <v>       0.31818182       0.06666667       0.00000000 </v>
   <v>       0.36363636       0.06666667       0.00000000 </v>
   <v>       0.40909091       0.06666667       0.00000000 </v>
   <v>       0.45454545       0.06666667       0.00000000 </v>
   <v>       0.50000000       0.06666667       0.00000000 </v>
   <v>      -0.45454545       0.06666667       0.00000000 </v>
   <v>      -0.40909091       0.06666667       0.00000000 </v>
   <v>      -0.36363636       0.06666667       0.00000000 </v>
   <v>      -0.31818182       0.06666667       0.00000000 </v>
   <v>      -0.27272727       0.06666667       0.00000000 </v>
   <v>      -0.22727273       0.06666667       0.00000000 </v>
   <v>      -0.18181818       0.06666667       0.00000000 </v>
   <v>      -0.13636364       0.06666667       0.00000000 </v>
   <v>      -0.09090909       0.06666667       0.00000000 </v>
   <v>      -0.04545455       0.06666667       0.00000000 </v>
   <v>       0.00000000       0.13333333       0.00000000 </v>
   <v>       0.04545455       0.13333333       0.00000000 </v>
   <v>       0.09090909       0.13333333       0.00000000 </v>
   <v>       0.13636364       0.13333333       0.00000000 </v>
   <v>       0.18181818       0.13333333       0.00000000 </v>
   <v>       0.22727273       0.13333333       0.00000000 </v>
   <v>       0.27272727       0.13333333       0.00000000 </v>
   <v>       0.31818182       0.13333333       0.00000000 </v>
   <v>       0.36363636       0.13333333       0.00000000 </v>
   <v>       0.40909091       0.13333333       0.00000000 </v>
   <v>       0.45454545       0.13333333       0.00000000 </v>
   <v>       0.50000000       0.13333333       0.00000000 </v>
   <v>      -0.45454545       0.13333333       0.00000000 </v>
   <v>      -0.40909091       0.13333333       0.00000000 </v>
   <v>      -0.36363636       0.13333333       0.00000000 </v>
   <v>      -0.31818182       0.13333333       0.00000000 </v>
   <v>      -0.27272727       0.13333333       0.00000000 </v>
   <v>      -0.22727273       0.13333333       0.00000000 </v>
   <v>      -0.18181818       0.13333333       0.00000000 </v>
   <v>      -0.13636364       0.13333333       0.00000000 </v>
   <v>      -0.09090909       0.13333333       0.00000000 </v>
   <v>      -0.04545455       0.13333333       0.00000000 </v>
   <v>       0.00000000       0.20000000       0.00000000 </v>
   <v>       0.04545455       0.20000000       0.00000000 </v>
   <v>       0.09090909       0.20000000       0.00000000 </v>
   <v>       0.13636364       0.20000000       0.00000000 </v>
   <v>       0.18181818       0.20000000       0.00000000 </v>
   <v>       0.22727273       0.20000000       0.00000000 </v>
   <v>       0.27272727       0.20000000       0.00000000 </v>
   <v>       0.31818182       0.20000000       0.00000000 </v>
   <v>       0.36363636       0.20000000       0.00000000 </v>
   <v>       0.40909091       0.20000000       0.00000000 </v>
   <v>       0.45454545       0.20000000       0.00000000 </v>
   <v>       0.50000000       0.20000000       0.00000000 </v>
   <v>      -0.45454545       0.20000000       0.00000000 </v>
   <v>      -0.40909091       0.20000000       0.00000000 </v>
   <v>      -0.36363636       0.20000000       0.00000000 </v>
   <v>      -0.31818182       0.20000000       0.00000000 </v>
   <v>      -0.27272727       0.20000000       0.00000000 </v>
   <v>      -0.22727273       0.20000000       0.00000000 </v>
   <v>      -0.18181818       0.20000000       0.00000000 </v>
   <v>      -0.13636364       0.20000000       0.00000000 </v>
   <v>      -0.09090909       0.20000000       0.00000000 </v>
   <v>      -0.04545455       0.20000000       0.00000000 </v>
   <v>       0.00000000       0.26666667       0.00000000 </v>
   <v>       0.04545455       0.26666667       0.00000000 </v>
   <v>       0.09090909       0.26666667       0.00000000 </v>
   <v>       0.13636364       0.26666667       0.00000000 </v>
   <v>       0.18181818       0.26666667       0.00000000 </v>
   <v>       0.22727273       0.26666667       0.00000000 </v>
   <v>       0.27272727       0.26666667       0.00000000 </v>
   <v>       0.31818182       0.26666667       0.00000000 </v>
   <v>       0.36363636       0.26666667       0.00000000 </v>
   <v>       0.40909091       0.26666667       0.00000000 </v>
   <v>       0.45454545       0.26666667       0.00000000 </v>
   <v>       0.50000000       0.26666667       0.00000000 </v>
   <v>      -0.45454545       0.26666667       0.00000000 </v>
   <v>      -0.40909091       0.26666667       0.00000000 </v>
   <v>      -0.36363636       0.26666667       0.00000000 </v>
   <v>      -0.31818182       0.26666667       0.00000000 </v>
   <v>      -0.27272727       0.26666667       0.00000000 </v>
   <v>      -0.22727273       0.26666667       0.00000000 </v>
   <v>      -0.18181818       0.26666667       0.00000000 </v>
   <v>      -0.13636364       0.26666667       0.00000000 </v>
   <v>      -0.09090909       0.26666667       0.00000000 </v>
   <v>      -0.04545455       0.26666667       0.00000000 </v>
   <v>       0.00000000       0.33333333       0.00000000 </v>
   <v>       0.04545455       0.33333333       0.00000000 </v>
   <v>       0.09090909       0.33333333       0.00000000 </v>
   <v>       0.13636364       0.33333333       0.00000000 </v>
   <v>       0.18181818       0.33333333       0.00000000 </v>
   <v>       0.22727273       0.33333333       0.00000000 </v>
   <v>       0.27272727       0.33333333       0.00000000 </v>
   <v>       0.31818182       0.33333333       0.00000000 </v>
   <v>       0.36363636       0.33333333       0.00000000 </v>
   <v>       0.40909091       0.33333333       0.00000000 </v>
   <v>       0.45454545       0.33333333       0.00000000 </v>
   <v>       0.50000000       0.33333333       0.00000000 </v>
   <v>      -0.45454545       0.33333333       0.00000000 </v>
   <v>      -0.40909091       0.33333333       0.00000000 </v>
   <v>      -0.36363636       0.33333333       0.00000000 </v>
   <v>      -0.31818182       0.33333333       0.00000000 </v>
   <v>      -0.27272727       0.33333333       0.00000000 </v>
   <v>      -0.22727273       0.33333333       0.00000000 </v>
   <v>      -0.18181818       0.33333333       0.00000000 </v>
   <v>      -0.13636364       0.33333333       0.00000000 </v>
   <v>      -0.09090909       0.33333333       0.00000000 </v>
   <v>      -0.04545455       0.33333333       0.00000000 </v>
   <v>       0.00000000       0.40000000       0.00000000 </v>
   <v>       0.04545455       0.40000000       0.00000000 </v>
   <v>       0.09090909       0.40000000       0.00000000 </v>
   <v>       0.13636364       0.40000000       0.00000000 </v>
   <v>       0.18181818       0.40000000       0.00000000 </v>
   <v>       0.22727273       0.40000000       0.00000000 </v>
   <v>       0.27272727       0.40000000       0.00000000 </v>
   <v>       0.31818182       0.40000000       0.00000000 </v>
   <v>       0.36363636       0.40000000       0.00000000 </v>
   <v>       0.40909091       0.40000000       0.00000000 </v>
   <v>       0.45454545       0.40000000       0.00000000 </v>
   <v>       0.50000000       0.40000000       0.00000000 </v>
   <v>      -0.45454545       0.40000000       0.00000000 </v>
   <v>      -0.40909091       0.40000000       0.00000000 </v>
   <v>      -0.36363636       0.40000000       0.00000000 </v>
   <v>      -0.31818182       0.40000000       0.00000000 </v>
   <v>      -0.27272727       0.40000000       0.00000000 </v>
   <v>      -0.22727273       0.40000000       0.00000000 </v>
   <v>      -0.18181818       0.40000000       0.00000000 </v>
   <v>      -0.13636364       0.40000000       0.00000000 </v>
   <v>      -0.09090909       0.40000000       0.00000000 </v>
   <v>      -0.04545455       0.40000000       0.00000000 </v>
   <v>       0.00000000       0.46666667       0.00000000 </v>
   <v>       0.04545455       0.46666667       0.00000000 </v>
   <v>       0.09090909       0.46666667       0.00000000 </v>
   <v>       0.13636364       0.46666667       0.00000000 </v>
   <v>       0.18181818       0.46666667       0.00000000 </v>
   <v>       0.22727273       0.46666667       0.00000000 </v>
   <v>       0.27272727       0.46666667       0.00000000 </v>
   <v>       0.31818182       0.46666667       0.00000000 </v>
   <v>       0.36363636       0.46666667       0.00000000 </v>
   <v>       0.40909091       0.46666667       0.00000000 </v>
   <v>       0.45454545       0.46666667       0.00000000 </v>
   <v>       0.50000000       0.46666667       0.00000000 </v>
   <v>      -0.45454545       0.46666667       0.00000000 </v>
   <v>      -0.40909091       0.46666667       0.00000000 </v>
   <v>      -0.36363636       0.46666667       0.00000000 </v>
   <v>      -0.31818182       0.46666667       0.00000000 </v>
   <v>      -0.27272727       0.46666667       0.00000000 </v>
   <v>      -0.22727273       0.46666667       0.00000000 </v>
   <v>      -0.18181818       0.46666667       0.00000000 </v>
   <v>      -0.13636364       0.46666667       0.00000000 </v>
   <v>      -0.09090909       0.46666667       0.00000000 </v>
   <v>      -0.04545455       0.46666667       0.00000000 </v>
  </varray>
  <varray name="weights" >
   <v>       0.00303030 </v>
   <v>       0.00606061 </v>
   <v>       0.00606061 </v>
   <v>       0.00606061 </v>
   <v>       0.00606061 </v>
   <v>       0.00606061 </v>
   <v>       0.00606061 </v>
   <v>       0.00606061 </v>
   <v>       0.00606061 </v>
   <v>       0.00606061 </v>
   <v>       0.00606061 </v>
   <v>       0.00303030 </v>
   <v>       0.00606061 </v>
   <v>       0.00606061 </v>
   <v>       0.00606061 </v>
   <v>       0.00606061 </v>
   <v>       0.00606061 </v>
   <v>       0.00606061 </v>
   <v>       0.00606061 </v>
   <v>       0.00606061 </v>
   <v>       0.00606061 </v>
   <v>       0.00606061 </v>
   <v>       0.00606061 </v>
   <v>       0.00606061 </v>
   <v>       0.00606061 </v>
   <v>       0.00606061 </v>
   <v>       0.00606061 </v>
   <v>       0.00606061 </v>
   <v>       0.00606061 </v>
   <v>       0.00606061 </v>
   <v>       0.00606061 </v>
   <v>       0.00606061 </v>
   <v>       0.00606061 </v>
   <v>       0.00606061 </v>
   <v>       0.00606061 </v>
   <v>       0.00606061 </v>
   <v>       0.00606061 </v>
   <v>       0.00606061 </v>
   <v>       0.00606061 </v>
   <v>       0.00606061 </v>
   <v>       0.00606061 </v>
   <v>       0.00606061 </v>
   <v>       0.00606061 </v>
   <v>       0.00606061 </v>
   <v>       0.00606061 </v>
   <v>       0.00606061 </v>
   <v>       0.00606061 </v>
   <v>       0.00606061 </v>
   <v>       0.00606061 </v>
   <v>       0.00606061 </v>
   <v>       0.00606061 </v>
   <v>       0.00606061 </v>
   <v>       0.00606061 </v>
   <v>       0.00606061 </v>
   <v>       0.00606061 </v>
   <v>       0.00606061 </v>
   <v>       0.00606061 </v>
   <v>       0.00606061 </v>
   <v>       0.00606061 </v>
   <v>       0.00606061 </v>
   <v>       0.00606061 </v>
   <v>       0.00606061 </v>
   <v>       0.00606061 </v>
   <v>       0.00606061 </v>
   <v>       0.00606061 </v>
   <v>       0.00606061 </v>
   <v>       0.00606061 </v>
   <v>       0.00606061 </v>
   <v>       0.00606061 </v>
   <v>       0.00606061 </v>
   <v>       0.00606061 </v>
   <v>       0.00606061 </v>
   <v>       0.00606061 </v>
   <v>       0.00606061 </v>
   <v>       0.00606061 </v>
   <v>       0.00606061 </v>
   <v>       0.00606061 </v>
   <v>       0.00606061 </v>
   <v>       0.00606061 </v>
   <v>       0.00606061 </v>
   <v>       0.00606061 </v>
   <v>       0.00606061 </v>
   <v>       0.00606061 </v>
   <v>       0.00606061 </v>
   <v>       0.00606061 </v>
   <v>       0.00606061 </v>
   <v>       0.00606061 </v>
   <v>       0.00606061 </v>
   <v>       0.00606061 </v>
   <v>       0.00606061 </v>
   <v>       0.00606061 </v>
   <v>       0.00606061 </v>
   <v>       0.00606061 </v>
   <v>       0.00606061 </v>
   <v>       0.00606061 </v>
   <v>       0.00606061 </v>
   <v>       0.00606061 </v>
   <v>       0.00606061 </v>
   <v>       0.00606061 </v>
   <v>       0.00606061 </v>
   <v>       0.00606061 </v>
   <v>       0.00606061 </v>
   <v>       0.00606061 </v>
   <v>       0.00606061 </v>
   <v>       0.00606061 </v>
   <v>       0.00606061 </v>
   <v>       0.00606061 </v>
   <v>       0.00606061 </v>
   <v>       0.00606061 </v>
   <v>       0.00606061 </v>
   <v>       0.00606061 </v>
   <v>       0.00606061 </v>
   <v>       0.00606061 </v>
   <v>       0.00606061 </v>
   <v>       0.00606061 </v>
   <v>       0.00606061 </v>
   <v>       0.00606061 </v>
   <v>       0.00606061 </v>
   <v>       0.00606061 </v>
   <v>       0.00606061 </v>
   <v>       0.00606061 </v>
   <v>       0.00606061 </v>
   <v>       0.00606061 </v>
   <v>       0.00606061 </v>
   <v>       0.00606061 </v>
   <v>       0.00606061 </v>
   <v>       0.00606061 </v>
   <v>       0.00606061 </v>
   <v>       0.00606061 </v>
   <v>       0.00606061 </v>
   <v>       0.00606061 </v>
   <v>       0.00606061 </v>
   <v>       0.00606061 </v>
   <v>       0.00606061 </v>
   <v>       0.00606061 </v>
   <v>       0.00606061 </v>
   <v>       0.00606061 </v>
   <v>       0.00606061 </v>
   <v>       0.00606061 </v>
   <v>       0.00606061 </v>
   <v>       0.00606061 </v>
   <v>       0.00606061 </v>
   <v>       0.00606061 </v>
   <v>       0.00606061 </v>
   <v>       0.00606061 </v>
   <v>       0.00606061 </v>
   <v>       0.00606061 </v>
   <v>       0.00606061 </v>
   <v>       0.00606061 </v>
   <v>       0.00606061 </v>
   <v>       0.00606061 </v>
   <v>       0.00606061 </v>
   <v>       0.00606061 </v>
   <v>       0.00606061 </v>
   <v>       0.00606061 </v>
   <v>       0.00606061 </v>
   <v>       0.00606061 </v>
   <v>       0.00606061 </v>
   <v>       0.00606061 </v>
   <v>       0.00606061 </v>
   <v>       0.00606061 </v>
   <v>       0.00606061 </v>
   <v>       0.00606061 </v>
   <v>       0.00606061 </v>
   <v>       0.00606061 </v>
   <v>       0.00606061 </v>
  </varray>
 </kpoints>
 <parameters>
  <separator name="general" >
   <i type="string" name="SYSTEM">unknown system</i>
   <i type="logical" name="LCOMPAT"> F  </i>
  </separator>
  <separator name="electronic" >
   <i type="string" name="PREC">a</i>
   <i name="ENMAX">    520.00000000</i>
   <i name="ENAUG">    342.92400000</i>
   <i name="EDIFF">      0.00001000</i>
   <i type="int" name="IALGO">    38</i>
   <i type="int" name="IWAVPR">    11</i>
   <i type="int" name="NBANDS">    16</i>
   <i name="NELECT">     20.00000000</i>
   <i type="int" name="TURBO">     0</i>
   <i type="int" name="IRESTART">     0</i>
   <i type="int" name="NREBOOT">     0</i>
   <i type="int" name="NMIN">     0</i>
   <i name="EREF">      0.00000000</i>
   <separator name="electronic smearing" >
    <i type="int" name="ISMEAR">     0</i>
    <i name="SIGMA">      0.02000000</i>
    <i name="KSPACING">      0.50000000</i>
    <i type="logical" name="KGAMMA"> T  </i>
   </separator>
   <separator name="electronic projectors" >
    <i type="logical" name="LREAL"> F  </i>
    <v name="ROPT">      0.00000000</v>
    <i type="int" name="LMAXPAW">  -100</i>
    <i type="int" name="LMAXMIX">     2</i>
    <i type="logical" name="NLSPLINE"> F  </i>
   </separator>
   <separator name="electronic startup" >
    <i type="int" name="ISTART">     0</i>
    <i type="int" name="ICHARG">     2</i>
    <i type="int" name="INIWAV">     1</i>
   </separator>
   <separator name="electronic spin" >
    <i type="int" name="ISPIN">     1</i>
    <i type="logical" name="LNONCOLLINEAR"> F  </i>
    <v name="MAGMOM">      1.00000000      1.00000000      1.00000000      1.00000000</v>
    <i name="NUPDOWN">     -1.00000000</i>
    <i type="logical" name="LSORBIT"> F  </i>
    <v name="SAXIS">      0.00000000      0.00000000      1.00000000</v>
    <i type="logical" name="LSPIRAL"> F  </i>
    <v name="QSPIRAL">      0.00000000      0.00000000      0.00000000</v>
    <i type="logical" name="LZEROZ"> F  </i>
   </separator>
   <separator name="electronic exchange-correlation" >
    <i type="logical" name="LASPH"> F  </i>
    <i type="logical" name="LMETAGGA"> F  </i>
   </separator>
   <separator name="electronic convergence" >
    <i type="int" name="NELM">   250</i>
    <i type="int" name="NELMDL">    -5</i>
    <i type="int" name="NELMIN">     6</i>
    <i name="ENINI">    520.00000000</i>
    <separator name="electronic convergence detail" >
     <i type="logical" name="LDIAG"> T  </i>
     <i type="logical" name="LSUBROT"> F  </i>
     <i name="WEIMIN">      0.00100000</i>
     <i name="EBREAK">      0.00000016</i>
     <i name="DEPER">      0.30000000</i>
     <i type="int" name="NRMM">     4</i>
     <i name="TIME">      0.40000000</i>
    </separator>
   </separator>
   <separator name="electronic mixer" >
    <i name="AMIX">      0.40000000</i>
    <i name="BMIX">      1.00000000</i>
    <i name="AMIN">      0.10000000</i>
    <i name="AMIX_MAG">      1.60000000</i>
    <i name="BMIX_MAG">      1.00000000</i>
    <separator name="electronic mixer details" >
     <i type="int" name="IMIX">     4</i>
     <i type="logical" name="MIXFIRST"> F  </i>
     <i type="int" name="MAXMIX">   -45</i>
     <i name="WC">    100.00000000</i>
     <i type="int" name="INIMIX">     1</i>
     <i type="int" name="MIXPRE">     1</i>
     <i type="int" name="MREMOVE">     5</i>
    </separator>
   </separator>
   <separator name="electronic dipolcorrection" >
    <i type="logical" name="LDIPOL"> F  </i>
    <i type="logical" name="LMONO"> F  </i>
    <i type="int" name="IDIPOL">     0</i>
    <i name="EPSILON">      1.00000000</i>
    <v name="DIPOL">   -100.00000000   -100.00000000   -100.00000000</v>
    <i name="EFIELD">      0.00000000</i>
   </separator>
  </separator>
  <separator name="grids" >
   <i type="int" name="NGX">    28</i>
   <i type="int" name="NGY">    36</i>
   <i type="int" name="NGZ">   150</i>
   <i type="int" name="NGXF">    56</i>
   <i type="int" name="NGYF">    72</i>
   <i type="int" name="NGZF">   300</i>
   <i type="logical" name="ADDGRID"> F  </i>
  </separator>
  <separator name="ionic" >
   <i type="int" name="NSW">   200</i>
   <i type="int" name="IBRION">     2</i>
   <i type="int" name="ISIF">     2</i>
   <i name="PSTRESS">      0.00000000</i>
   <i name="EDIFFG">     -0.01000000</i>
   <i type="int" name="NFREE">     1</i>
   <i name="POTIM">      0.30000000</i>
   <i name="SMASS">     -3.00000000</i>
   <i name="SCALEE">      1.00000000</i>
  </separator>
  <separator name="ionic md" >
   <i name="TEBEG">      0.00010000</i>
   <i name="TEEND">      0.00010000</i>
   <i type="int" name="NBLOCK">     1</i>
   <i type="int" name="KBLOCK">   200</i>
   <i type="int" name="NPACO">   256</i>
   <i name="APACO">     16.00000000</i>
  </separator>
  <separator name="symmetry" >
   <i type="int" name="ISYM">     2</i>
   <i name="SYMPREC">      0.00001000</i>
  </separator>
  <separator name="dos" >
   <i type="logical" name="LORBIT"> F  </i>
   <v name="RWIGS">     -1.00000000</v>
   <i type="int" name="NEDOS">   301</i>
   <i name="EMIN">     10.00000000</i>
   <i name="EMAX">    -10.00000000</i>
   <i name="EFERMI">      0.00000000</i>
  </separator>
  <separator name="writing" >
   <i type="int" name="NWRITE">     2</i>
   <i type="logical" name="LWAVE"> F  </i>
   <i type="logical" name="LCHARG"> F  </i>
   <i type="logical" name="LPARD"> F  </i>
   <i type="logical" name="LVTOT"> F  </i>
   <i type="logical" name="LVHAR"> F  </i>
   <i type="logical" name="LELF"> F  </i>
   <i type="logical" name="LOPTICS"> F  </i>
   <v name="STM">      0.00000000      0.00000000      0.00000000      0.00000000      0.00000000      0.00000000      0.00000000</v>
  </separator>
  <separator name="performance" >
   <i type="int" name="NPAR">     4</i>
   <i type="int" name="NSIM">     4</i>
   <i type="int" name="NBLK">    -1</i>
   <i type="logical" name="LPLANE"> T  </i>
   <i type="logical" name="LSCALAPACK"> T  </i>
   <i type="logical" name="LSCAAWARE"> F  </i>
   <i type="logical" name="LSCALU"> F  </i>
   <i type="logical" name="LASYNC"> F  </i>
   <i type="logical" name="LORBITALREAL"> F  </i>
  </separator>
  <separator name="miscellaneous" >
   <i type="int" name="IDIOT">     3</i>
   <i type="logical" name="LMUSIC"> F  </i>
   <v name="POMASS">     30.97400000</v>
   <v name="DARWINR">      0.00000000</v>
   <v name="DARWINV">      1.00000000</v>
   <i type="logical" name="LCORR"> T  </i>
  </separator>
  <i type="logical" name="GGA_COMPAT"> T  </i>
  <i type="logical" name="LBERRY"> F  </i>
  <i type="int" name="ICORELEVEL">     0</i>
  <i type="logical" name="LDAU"> F  </i>
  <i type="int" name="I_CONSTRAINED_M">     0</i>
  <separator name="electronic exchange-correlation" >
   <i type="string" name="GGA">--</i>
   <i type="int" name="VOSKOWN">     0</i>
   <i type="logical" name="LHFCALC"> F  </i>
   <i type="string" name="PRECFOCK"></i>
   <i type="logical" name="LSYMGRAD"> F  </i>
   <i type="logical" name="LHFONE"> F  </i>
   <i type="logical" name="LRHFCALC"> F  </i>
   <i type="logical" name="LTHOMAS"> F  </i>
   <i type="logical" name="LMODELHF"> F  </i>
   <i name="ENCUT4O">     -1.00000000</i>
   <i type="int" name="EXXOEP">     0</i>
   <i type="int" name="FOURORBIT">     0</i>
   <i name="AEXX">      0.00000000</i>
   <i name="HFALPHA">      0.00000000</i>
   <i name="MCALPHA">      0.00000000</i>
   <i name="ALDAX">      1.00000000</i>
   <i name="AGGAX">      1.00000000</i>
   <i name="ALDAC">      1.00000000</i>
   <i name="AGGAC">      1.00000000</i>
   <i type="int" name="NKREDX">     1</i>
   <i type="int" name="NKREDY">     1</i>
   <i type="int" name="NKREDZ">     1</i>
   <i type="logical" name="SHIFTRED"> F  </i>
   <i type="logical" name="ODDONLY"> F  </i>
   <i type="logical" name="EVENONLY"> F  </i>
   <i type="int" name="LMAXFOCK">     0</i>
   <i type="int" name="NMAXFOCKAE">     0</i>
   <i type="logical" name="LFOCKAEDFT"> F  </i>
   <i name="HFSCREEN">      0.00000000</i>
   <i name="HFSCREENC">      0.00000000</i>
   <i type="int" name="NBANDSGWLOW">     0</i>
  </separator>
  <separator name="vdW DFT" >
   <i type="logical" name="LUSE_VDW"> F  </i>
   <i name="Zab_VDW">     -0.84910000</i>
   <i name="PARAM1">      0.12340000</i>
   <i name="PARAM2">      1.00000000</i>
   <i name="PARAM3">      0.00000000</i>
  </separator>
  <separator name="model GW" >
   <i type="int" name="MODEL_GW">     0</i>
   <i name="MODEL_EPS0">     46.46991405</i>
   <i name="MODEL_ALPHA">      1.00000000</i>
  </separator>
  <separator name="linear response parameters" >
   <i type="logical" name="LEPSILON"> F  </i>
   <i type="logical" name="LRPA"> F  </i>
   <i type="logical" name="LNABLA"> F  </i>
   <i type="logical" name="LVEL"> F  </i>
   <i type="int" name="KINTER">     0</i>
   <i name="CSHIFT">      0.10000000</i>
   <i name="OMEGAMAX">     -1.00000000</i>
   <i name="DEG_THRESHOLD">      0.00200000</i>
  </separator>
  <separator name="orbital magnetization" >
   <i type="logical" name="NUCIND"> F  </i>
   <v name="MAGPOS">      0.00000000      0.00000000      0.00000000</v>
   <i type="logical" name="LNICSALL"> T  </i>
   <i type="logical" name="ORBITALMAG"> F  </i>
   <i type="logical" name="LMAGBLOCH"> F  </i>
   <i type="logical" name="LCHIMAG"> F  </i>
   <i type="logical" name="LGAUGE"> T  </i>
   <i type="int" name="MAGATOM">     0</i>
   <v name="MAGDIPOL">      0.00000000      0.00000000      0.00000000</v>
   <v name="AVECCONST">      0.00000000      0.00000000      0.00000000</v>
  </separator>
  <separator name="response functions" >
   <i type="logical" name="LADDER"> F  </i>
   <i type="logical" name="LFXC"> F  </i>
   <i type="logical" name="LHARTREE"> T  </i>
   <i type="int" name="IBSE">     0</i>
   <v type="int" name="KPOINT">    -1     0     0     0</v>
   <i type="logical" name="LTCTE"> F  </i>
   <i type="logical" name="LTETE"> F  </i>
   <i type="logical" name="LTRIPLET"> F  </i>
   <i type="logical" name="LFXCEPS"> F  </i>
   <i type="logical" name="LFXHEG"> F  </i>
   <i type="int" name="NATURALO">     0</i>
   <i type="logical" name="L2ORDER"> F  </i>
   <i type="logical" name="LUSEW"> F  </i>
   <i name="ENCUTGW">     -2.00000000</i>
   <i name="ENCUTGWSOFT">     -2.00000000</i>
   <i name="ENCUTLF">     -1.00000000</i>
   <i type="int" name="LMAXMP2">    -1</i>
   <i name="SCISSOR">      0.00000000</i>
   <i type="int" name="NOMEGA">     0</i>
   <i type="int" name="NOMEGAR">     0</i>
   <i type="int" name="NBANDSGW">    -1</i>
   <i type="int" name="NBANDSO">    -1</i>
   <i type="int" name="NBANDSV">    -1</i>
   <i type="int" name="NELM">   250</i>
   <i type="int" name="NELMHF">     1</i>
   <i type="int" name="DIM">     3</i>
   <i type="int" name="ANTIRES">     0</i>
   <i name="OMEGAMAX">    -30.00000000</i>
   <i name="OMEGAMIN">    -30.00000000</i>
   <i name="OMEGATL">   -200.00000000</i>
   <i type="int" name="OMEGAGRID">     0</i>
   <i name="CSHIFT">     -0.10000000</i>
   <i type="logical" name="SELFENERGY"> F  </i>
   <i type="logical" name="LSPECTRAL"> F  </i>
   <i type="logical" name="LSPECTRALGW"> F  </i>
   <i type="logical" name="LSINGLES"> F  </i>
   <i type="logical" name="LFERMIGW"> F  </i>
   <i type="logical" name="ODDONLYGW"> F  </i>
   <i type="logical" name="EVENONLYGW"> F  </i>
   <i type="int" name="NKREDLFX">     1</i>
   <i type="int" name="NKREDLFY">     1</i>
   <i type="int" name="NKREDLFZ">     1</i>
   <i type="int" name="MAXMEM">  1800</i>
   <i type="int" name="TELESCOPE">     0</i>
   <i type="int" name="TAUPAR">     1</i>
   <i type="int" name="OMEGAPAR">    -1</i>
   <i name="LAMBDA">      1.00000000</i>
  </separator>
  <separator name="External order field" >
   <i name="OFIELD_KAPPA">      0.00000000</i>
   <v name="OFIELD_K">      0.00000000      0.00000000      0.00000000</v>
   <i name="OFIELD_Q6_NEAR">      0.00000000</i>
   <i name="OFIELD_Q6_FAR">      0.00000000</i>
   <i name="OFIELD_A">      0.00000000</i>
  </separator>
 </parameters>
 <atominfo>
  <atoms>       4 </atoms>
  <types>       1 </types>
  <array name="atoms" >
   <dimension dim="1">ion</dimension>
   <field type="string">element</field>
   <field type="int">atomtype</field>
   <set>
    <rc><c>P </c><c>   1</c></rc>
    <rc><c>P </c><c>   1</c></rc>
    <rc><c>P </c><c>   1</c></rc>
    <rc><c>P </c><c>   1</c></rc>
   </set>
  </array>
  <array name="atomtypes" >
   <dimension dim="1">type</dimension>
   <field type="int">atomspertype</field>
   <field type="string">element</field>
   <field>mass</field>
   <field>valence</field>
   <field type="string">pseudopotential</field>
   <set>
    <rc><c>   4</c><c>P </c><c>     30.97400000</c><c>      5.00000000</c><c>  PAW_PBE P 06Sep2000                   </c></rc>
   </set>
  </array>
 </atominfo>
 <structure name="initialpos" >
  <crystal>
   <varray name="basis" >
    <v>       3.29720400       0.00000000       0.00000000 </v>
    <v>       0.00000000       4.69218900      -0.00005300 </v>
    <v>       0.00000000       0.00000000      20.02439000 </v>
   </varray>
   <i name="volume">    309.79942703 </i>
   <varray name="rec_basis" >
    <v>       0.30328727       0.00000000       0.00000000 </v>
    <v>       0.00000000       0.21312014       0.00000000 </v>
    <v>       0.00000000       0.00000056       0.04993910 </v>
   </varray>
  </crystal>
  <varray name="positions" >
   <v>       0.50000000       0.91077300       0.55252100 </v>
   <v>       0.50000000       0.08922700       0.44747900 </v>
   <v>       0.00000000       0.41076900       0.44747900 </v>
   <v>       0.00000000       0.58923100       0.55252100 </v>
  </varray>
 </structure>
 <calculation>
  <scstep>
   <time name="dav">    1.57    1.57</time>
   <time name="total">    1.60    1.60</time>
   <energy>
    <i name="alphaZ">      5.17806329 </i>
    <i name="ewald">   1828.96485860 </i>
    <i name="hartreedc">  -2422.89284201 </i>
    <i name="XCdc">     12.90323861 </i>
    <i name="pawpsdc">    559.04011960 </i>
    <i name="pawaedc">   -526.39432044 </i>
    <i name="eentropy">     -0.00054581 </i>
    <i name="bandstr">    -27.80895534 </i>
    <i name="atom">    704.16778566 </i>
    <i name="e_fr_energy">    133.15740216 </i>
    <i name="e_wo_entrp">    133.15794797 </i>
    <i name="e_0_energy">    133.15767506 </i>
   </energy>
  </scstep>
  <scstep>
   <time name="dav">    2.12    2.12</time>
   <time name="total">    2.12    2.12</time>
   <energy>
    <i name="e_fr_energy">     -6.32699832 </i>
    <i name="e_wo_entrp">     -6.32699832 </i>
    <i name="e_0_energy">     -6.32699832 </i>
   </energy>
  </scstep>
  <scstep>
   <time name="dav">    1.93    1.93</time>
   <time name="total">    1.93    1.93</time>
   <energy>
    <i name="e_fr_energy">    -21.33463626 </i>
    <i name="e_wo_entrp">    -21.33463626 </i>
    <i name="e_0_energy">    -21.33463626 </i>
   </energy>
  </scstep>
  <scstep>
   <time name="dav">    1.97    1.97</time>
   <time name="total">    1.97    1.97</time>
   <energy>
    <i name="e_fr_energy">    -21.64463626 </i>
    <i name="e_wo_entrp">    -21.64463626 </i>
    <i name="e_0_energy">    -21.64463626 </i>
   </energy>
  </scstep>
  <scstep>
   <time name="dav">    2.08    2.08</time>
   <time name="total">    2.17    2.18</time>
   <energy>
    <i name="e_fr_energy">    -21.65431450 </i>
    <i name="e_wo_entrp">    -21.65431450 </i>
    <i name="e_0_energy">    -21.65431450 </i>
   </energy>
  </scstep>
  <scstep>
   <time name="dav">    1.91    1.91</time>
   <time name="total">    2.03    2.03</time>
   <energy>
    <i name="e_fr_energy">    -21.51608714 </i>
    <i name="e_wo_entrp">    -21.51608714 </i>
    <i name="e_0_energy">    -21.51608714 </i>
   </energy>
  </scstep>
  <scstep>
   <time name="dav">    1.83    1.83</time>
   <time name="total">    1.95    1.95</time>
   <energy>
    <i name="e_fr_energy">    -21.45060195 </i>
    <i name="e_wo_entrp">    -21.45060195 </i>
    <i name="e_0_energy">    -21.45060195 </i>
   </energy>
  </scstep>
  <scstep>
   <time name="dav">    1.91    1.91</time>
   <time name="total">    2.02    2.03</time>
   <energy>
    <i name="e_fr_energy">    -21.45005893 </i>
    <i name="e_wo_entrp">    -21.45005893 </i>
    <i name="e_0_energy">    -21.45005893 </i>
   </energy>
  </scstep>
  <scstep>
   <time name="dav">    2.23    2.23</time>
   <time name="total">    2.34    2.35</time>
   <energy>
    <i name="e_fr_energy">    -21.44991932 </i>
    <i name="e_wo_entrp">    -21.44991932 </i>
    <i name="e_0_energy">    -21.44991932 </i>
   </energy>
  </scstep>
  <scstep>
   <time name="dav">    1.90    1.90</time>
   <time name="total">    2.02    2.02</time>
   <energy>
    <i name="e_fr_energy">    -21.44975718 </i>
    <i name="e_wo_entrp">    -21.44975718 </i>
    <i name="e_0_energy">    -21.44975718 </i>
   </energy>
  </scstep>
  <scstep>
   <time name="dav">    1.91    1.91</time>
   <time name="total">    2.02    2.03</time>
   <energy>
    <i name="e_fr_energy">    -21.44967913 </i>
    <i name="e_wo_entrp">    -21.44967913 </i>
    <i name="e_0_energy">    -21.44967913 </i>
   </energy>
  </scstep>
  <scstep>
   <time name="dav">    1.70    1.70</time>
   <time name="total">    1.82    1.82</time>
   <energy>
    <i name="e_fr_energy">    -21.45003628 </i>
    <i name="e_wo_entrp">    -21.45003628 </i>
    <i name="e_0_energy">    -21.45003628 </i>
   </energy>
  </scstep>
  <scstep>
   <time name="dav">    1.71    1.71</time>
   <time name="total">    1.83    1.83</time>
   <energy>
    <i name="e_fr_energy">    -21.45013234 </i>
    <i name="e_wo_entrp">    -21.45013234 </i>
    <i name="e_0_energy">    -21.45013234 </i>
   </energy>
  </scstep>
  <scstep>
   <time name="dav">    1.58    1.58</time>
   <time name="total">    1.69    1.70</time>
   <energy>
    <i name="e_fr_energy">    -21.45027554 </i>
    <i name="e_wo_entrp">    -21.45027554 </i>
    <i name="e_0_energy">    -21.45027554 </i>
   </energy>
  </scstep>
  <scstep>
   <time name="dav">    1.64    1.64</time>
   <time name="total">    1.75    1.76</time>
   <energy>
    <i name="e_fr_energy">    -21.45030164 </i>
    <i name="e_wo_entrp">    -21.45030164 </i>
    <i name="e_0_energy">    -21.45030164 </i>
   </energy>
  </scstep>
  <scstep>
   <time name="dav">    1.51    1.51</time>
   <time name="total">    1.63    1.63</time>
   <energy>
    <i name="e_fr_energy">    -21.45033427 </i>
    <i name="e_wo_entrp">    -21.45033427 </i>
    <i name="e_0_energy">    -21.45033427 </i>
   </energy>
  </scstep>
  <scstep>
   <time name="dav">    1.57    1.57</time>
   <time name="total">    1.59    1.59</time>
   <energy>
    <i name="alphaZ">      5.17806329 </i>
    <i name="ewald">   1828.96485860 </i>
    <i name="hartreedc">  -2437.76490093 </i>
    <i name="XCdc">     13.94989168 </i>
    <i name="pawpsdc">   2041.54037039 </i>
    <i name="pawaedc">  -2009.21171684 </i>
    <i name="eentropy">     -0.00000000 </i>
    <i name="bandstr">   -168.27468873 </i>
    <i name="atom">    704.16778566 </i>
    <i name="e_fr_energy">    -21.45033688 </i>
    <i name="e_wo_entrp">    -21.45033688 </i>
    <i name="e_0_energy">    -21.45033688 </i>
   </energy>
  </scstep>
  <structure>
   <crystal>
    <varray name="basis" >
     <v>       3.29720400       0.00000000       0.00000000 </v>
     <v>       0.00000000       4.69218900      -0.00005300 </v>
     <v>       0.00000000       0.00000000      20.02439000 </v>
    </varray>
    <i name="volume">    309.79942703 </i>
    <varray name="rec_basis" >
     <v>       0.30328727       0.00000000       0.00000000 </v>
     <v>       0.00000000       0.21312014       0.00000000 </v>
     <v>       0.00000000       0.00000056       0.04993910 </v>
    </varray>
   </crystal>
   <varray name="positions" >
    <v>       0.50000000       0.91077300       0.55252100 </v>
    <v>       0.50000000       0.08922700       0.44747900 </v>
    <v>       0.00000000       0.41076900       0.44747900 </v>
    <v>       0.00000000       0.58923100       0.55252100 </v>
   </varray>
  </structure>
  <varray name="forces" >
   <v>       0.00000020      -0.20568463      -0.04093627 </v>
   <v>      -0.00000020       0.20568463       0.04093627 </v>
   <v>      -0.00000012      -0.20571200       0.04094425 </v>
   <v>       0.00000012       0.20571200      -0.04094425 </v>
  </varray>
  <varray name="stress" >
   <v>      -2.02413926      -0.00000078       0.00000011 </v>
   <v>      -0.00000083      -5.07157899       0.00035388 </v>
   <v>       0.00000004       0.00035383      -0.95470271 </v>
  </varray>
  <energy>
   <i name="e_fr_energy">    -21.45033688 </i>
   <i name="e_wo_entrp">    -21.45033688 </i>
   <i name="e_0_energy">     -0.00000000 </i>
  </energy>
  <time name="totalsc">   33.31   33.36</time>
 </calculation>
 <calculation>
  <scstep>
   <time name="dav">    1.68    1.68</time>
   <time name="total">    1.79    1.80</time>
   <energy>
    <i name="alphaZ">      5.17806329 </i>
    <i name="ewald">   1830.93877248 </i>
    <i name="hartreedc">  -2439.40144431 </i>
    <i name="XCdc">     13.98497255 </i>
    <i name="pawpsdc">   2041.15129164 </i>
    <i name="pawaedc">  -2008.82267800 </i>
    <i name="eentropy">     -0.00000000 </i>
    <i name="bandstr">   -168.65026623 </i>
    <i name="atom">    704.16778566 </i>
    <i name="e_fr_energy">    -21.45350293 </i>
    <i name="e_wo_entrp">    -21.45350293 </i>
    <i name="e_0_energy">    -21.45350293 </i>
   </energy>
  </scstep>
  <scstep>
   <time name="dav">    1.99    1.99</time>
   <time name="total">    2.10    2.10</time>
   <energy>
    <i name="e_fr_energy">    -21.45398796 </i>
    <i name="e_wo_entrp">    -21.45398796 </i>
    <i name="e_0_energy">    -21.45398796 </i>
   </energy>
  </scstep>
  <scstep>
   <time name="dav">    2.12    2.12</time>
   <time name="total">    2.23    2.24</time>
   <energy>
    <i name="e_fr_energy">    -21.45398557 </i>
    <i name="e_wo_entrp">    -21.45398557 </i>
    <i name="e_0_energy">    -21.45398557 </i>
   </energy>
  </scstep>
  <scstep>
   <time name="dav">    1.70    1.70</time>
   <time name="total">    1.82    1.82</time>
   <energy>
    <i name="e_fr_energy">    -21.45398791 </i>
    <i name="e_wo_entrp">    -21.45398791 </i>
    <i name="e_0_energy">    -21.45398791 </i>
   </energy>
  </scstep>
  <scstep>
   <time name="dav">    1.33    1.34</time>
   <time name="total">    1.45    1.46</time>
   <energy>
    <i name="e_fr_energy">    -21.45398824 </i>
    <i name="e_wo_entrp">    -21.45398824 </i>
    <i name="e_0_energy">    -21.45398824 </i>
   </energy>
  </scstep>
  <scstep>
   <time name="dav">    1.27    1.27</time>
   <time name="total">    1.29    1.29</time>
   <energy>
    <i name="alphaZ">      5.17806329 </i>
    <i name="ewald">   1830.93877248 </i>
    <i name="hartreedc">  -2439.41623742 </i>
    <i name="XCdc">     13.98896655 </i>
    <i name="pawpsdc">   2063.49244859 </i>
    <i name="pawaedc">  -2031.17207085 </i>
    <i name="eentropy">     -0.00000000 </i>
    <i name="bandstr">   -168.63171721 </i>
    <i name="atom">    704.16778566 </i>
    <i name="e_fr_energy">    -21.45398892 </i>
    <i name="e_wo_entrp">    -21.45398892 </i>
    <i name="e_0_energy">    -21.45398892 </i>
   </energy>
  </scstep>
  <structure>
   <crystal>
    <varray name="basis" >
     <v>       3.29720400       0.00000000       0.00000000 </v>
     <v>       0.00000000       4.69218900      -0.00005300 </v>
     <v>       0.00000000       0.00000000      20.02439000 </v>
    </varray>
    <i name="volume">    309.79942703 </i>
    <varray name="rec_basis" >
     <v>       0.30328727       0.00000000       0.00000000 </v>
     <v>       0.00000000       0.21312014       0.00000000 </v>
     <v>       0.00000000       0.00000056       0.04993910 </v>
    </varray>
   </crystal>
   <varray name="positions" >
    <v>       0.50000000       0.90950415       0.55246182 </v>
    <v>       0.50000000       0.09049585       0.44753818 </v>
    <v>      -0.00000000       0.40949999       0.44753818 </v>
    <v>       0.00000000       0.59050001       0.55246182 </v>
   </varray>
  </structure>
  <varray name="forces" >
   <v>       0.00000001      -0.08186816      -0.04191410 </v>
   <v>      -0.00000001       0.08186816       0.04191410 </v>
   <v>      -0.00000003      -0.08189081       0.04191589 </v>
   <v>       0.00000003       0.08189081      -0.04191589 </v>
  </varray>
  <varray name="stress" >
   <v>      -1.51383529      -0.00000040       0.00000009 </v>
   <v>      -0.00000037      -3.25492069       0.00028413 </v>
   <v>       0.00000019       0.00028417      -1.00975627 </v>
  </varray>
  <energy>
   <i name="e_fr_energy">    -21.45398892 </i>
   <i name="e_wo_entrp">    -21.45398892 </i>
   <i name="e_0_energy">     -0.00000000 </i>
  </energy>
  <time name="totalsc">   11.51   11.53</time>
 </calculation>
 <calculation>
  <scstep>
   <time name="dav">    1.66    1.66</time>
   <time name="total">    1.78    1.78</time>
   <energy>
    <i name="alphaZ">      5.17806329 </i>
    <i name="ewald">   1832.38586281 </i>
    <i name="hartreedc">  -2440.59792496 </i>
    <i name="XCdc">     14.01455937 </i>
    <i name="pawpsdc">   2063.67699164 </i>
    <i name="pawaedc">  -2031.35655809 </i>
    <i name="eentropy">     -0.00000000 </i>
    <i name="bandstr">   -168.92329028 </i>
    <i name="atom">    704.16778566 </i>
    <i name="e_fr_energy">    -21.45451057 </i>
    <i name="e_wo_entrp">    -21.45451057 </i>
    <i name="e_0_energy">    -21.45451057 </i>
   </energy>
  </scstep>
  <scstep>
   <time name="dav">    2.00    2.01</time>
   <time name="total">    2.12    2.12</time>
   <energy>
    <i name="e_fr_energy">    -21.45477286 </i>
    <i name="e_wo_entrp">    -21.45477286 </i>
    <i name="e_0_energy">    -21.45477286 </i>
   </energy>
  </scstep>
  <scstep>
   <time name="dav">    2.07    2.07</time>
   <time name="total">    2.18    2.18</time>
   <energy>
    <i name="e_fr_energy">    -21.45477145 </i>
    <i name="e_wo_entrp">    -21.45477145 </i>
    <i name="e_0_energy">    -21.45477145 </i>
   </energy>
  </scstep>
  <scstep>
   <time name="dav">    1.51    1.51</time>
   <time name="total">    1.63    1.63</time>
   <energy>
    <i name="e_fr_energy">    -21.45477270 </i>
    <i name="e_wo_entrp">    -21.45477270 </i>
    <i name="e_0_energy">    -21.45477270 </i>
   </energy>
  </scstep>
  <scstep>
   <time name="dav">    1.28    1.28</time>
   <time name="total">    1.40    1.40</time>
   <energy>
    <i name="e_fr_energy">    -21.45477278 </i>
    <i name="e_wo_entrp">    -21.45477278 </i>
    <i name="e_0_energy">    -21.45477278 </i>
   </energy>
  </scstep>
  <scstep>
   <time name="dav">    1.23    1.23</time>
   <time name="total">    1.25    1.25</time>
   <energy>
    <i name="alphaZ">      5.17806329 </i>
    <i name="ewald">   1832.38586281 </i>
    <i name="hartreedc">  -2440.60094075 </i>
    <i name="XCdc">     14.01745889 </i>
    <i name="pawpsdc">   2080.25083751 </i>
    <i name="pawaedc">  -2047.93652358 </i>
    <i name="eentropy">     -0.00000000 </i>
    <i name="bandstr">   -168.91731698 </i>
    <i name="atom">    704.16778566 </i>
    <i name="e_fr_energy">    -21.45477315 </i>
    <i name="e_wo_entrp">    -21.45477315 </i>
    <i name="e_0_energy">    -21.45477315 </i>
   </energy>
  </scstep>
  <structure>
   <crystal>
    <varray name="basis" >
     <v>       3.29720400       0.00000000       0.00000000 </v>
     <v>       0.00000000       4.69218900      -0.00005300 </v>
     <v>       0.00000000       0.00000000      20.02439000 </v>
    </varray>
    <i name="volume">    309.79942703 </i>
    <varray name="rec_basis" >
     <v>       0.30328727       0.00000000       0.00000000 </v>
     <v>       0.00000000       0.21312014       0.00000000 </v>
     <v>       0.00000000       0.00000056       0.04993910 </v>
    </varray>
   </crystal>
   <varray name="positions" >
    <v>       0.50000000       0.90857815       0.55241863 </v>
    <v>       0.50000000       0.09142185       0.44758137 </v>
    <v>      -0.00000000       0.40857385       0.44758137 </v>
    <v>       0.00000000       0.59142615       0.55241863 </v>
   </varray>
  </structure>
  <varray name="forces" >
   <v>      -0.00000002       0.01013813      -0.04306351 </v>
   <v>       0.00000002      -0.01013813       0.04306351 </v>
   <v>      -0.00000002       0.01011871       0.04306119 </v>
   <v>       0.00000002      -0.01011871      -0.04306119 </v>
  </varray>
  <varray name="stress" >
   <v>      -1.11098223       0.00000009      -0.00000064 </v>
   <v>       0.00000017      -1.91123646       0.00023098 </v>
   <v>      -0.00000061       0.00023097      -1.02960731 </v>
  </varray>
  <energy>
   <i name="e_fr_energy">    -21.45477315 </i>
   <i name="e_wo_entrp">    -21.45477315 </i>
   <i name="e_0_energy">     -0.00000000 </i>
  </energy>
  <time name="totalsc">   11.16   11.18</time>
 </calculation>
 <calculation>
  <scstep>
   <time name="dav">    1.53    1.53</time>
   <time name="total">    1.64    1.65</time>
   <energy>
    <i name="alphaZ">      5.17806329 </i>
    <i name="ewald">   1833.74535590 </i>
    <i name="hartreedc">  -2441.87945949 </i>
    <i name="XCdc">     14.02659647 </i>
    <i name="pawpsdc">   2080.41560902 </i>
    <i name="pawaedc">  -2048.10125384 </i>
    <i name="eentropy">     -0.00000000 </i>
    <i name="bandstr">   -169.00762801 </i>
    <i name="atom">    704.16778566 </i>
    <i name="e_fr_energy">    -21.45493100 </i>
    <i name="e_wo_entrp">    -21.45493100 </i>
    <i name="e_0_energy">    -21.45493100 </i>
   </energy>
  </scstep>
  <scstep>
   <time name="dav">    1.91    1.91</time>
   <time name="total">    2.02    2.03</time>
   <energy>
    <i name="e_fr_energy">    -21.45497130 </i>
    <i name="e_wo_entrp">    -21.45497130 </i>
    <i name="e_0_energy">    -21.45497130 </i>
   </energy>
  </scstep>
  <scstep>
   <time name="dav">    1.39    1.39</time>
   <time name="total">    1.51    1.51</time>
   <energy>
    <i name="e_fr_energy">    -21.45497066 </i>
    <i name="e_wo_entrp">    -21.45497066 </i>
    <i name="e_0_energy">    -21.45497066 </i>
   </energy>
  </scstep>
  <scstep>
   <time name="dav">    1.24    1.24</time>
   <time name="total">    1.35    1.36</time>
   <energy>
    <i name="e_fr_energy">    -21.45497144 </i>
    <i name="e_wo_entrp">    -21.45497144 </i>
    <i name="e_0_energy">    -21.45497144 </i>
   </energy>
  </scstep>
  <scstep>
   <time name="dav">    1.22    1.22</time>
   <time name="total">    1.33    1.33</time>
   <energy>
    <i name="e_fr_energy">    -21.45497152 </i>
    <i name="e_wo_entrp">    -21.45497152 </i>
    <i name="e_0_energy">    -21.45497152 </i>
   </energy>
  </scstep>
  <scstep>
   <time name="dav">    1.22    1.22</time>
   <time name="total">    1.24    1.24</time>
   <energy>
    <i name="alphaZ">      5.17806329 </i>
    <i name="ewald">   1833.74535590 </i>
    <i name="hartreedc">  -2441.87356835 </i>
    <i name="XCdc">     14.02712939 </i>
    <i name="pawpsdc">   2084.88636780 </i>
    <i name="pawaedc">  -2052.57352538 </i>
    <i name="eentropy">     -0.00000000 </i>
    <i name="bandstr">   -169.01258005 </i>
    <i name="atom">    704.16778566 </i>
    <i name="e_fr_energy">    -21.45497174 </i>
    <i name="e_wo_entrp">    -21.45497174 </i>
    <i name="e_0_energy">    -21.45497174 </i>
   </energy>
  </scstep>
  <structure>
   <crystal>
    <varray name="basis" >
     <v>       3.29720400       0.00000000       0.00000000 </v>
     <v>       0.00000000       4.69218900      -0.00005300 </v>
     <v>       0.00000000       0.00000000      20.02439000 </v>
    </varray>
    <i name="volume">    309.79942703 </i>
    <varray name="rec_basis" >
     <v>       0.30328727       0.00000000       0.00000000 </v>
     <v>       0.00000000       0.21312014       0.00000000 </v>
     <v>       0.00000000       0.00000056       0.04993910 </v>
    </varray>
   </crystal>
   <varray name="positions" >
    <v>       0.50000000       0.90857454       0.55234379 </v>
    <v>       0.50000000       0.09142546       0.44765621 </v>
    <v>      -0.00000000       0.40857010       0.44765622 </v>
    <v>       0.00000000       0.59142990       0.55234378 </v>
   </varray>
  </structure>
  <varray name="forces" >
   <v>      -0.00000003       0.00584875      -0.02198686 </v>
   <v>       0.00000003      -0.00584875       0.02198686 </v>
   <v>       0.00000002       0.00583291       0.02198542 </v>
   <v>      -0.00000002      -0.00583291      -0.02198542 </v>
  </varray>
  <varray name="stress" >
   <v>      -1.07597648      -0.00000031      -0.00000069 </v>
   <v>      -0.00000036      -1.82384915       0.00019237 </v>
   <v>      -0.00000069       0.00019243      -0.55941407 </v>
  </varray>
  <energy>
   <i name="e_fr_energy">    -21.45497174 </i>
   <i name="e_wo_entrp">    -21.45497174 </i>
   <i name="e_0_energy">     -0.00000000 </i>
  </energy>
  <time name="totalsc">    9.91    9.93</time>
 </calculation>
 <calculation>
  <scstep>
   <time name="dav">    1.53    1.53</time>
   <time name="total">    1.64    1.64</time>
   <energy>
    <i name="alphaZ">      5.17806329 </i>
    <i name="ewald">   1835.16303479 </i>
    <i name="hartreedc">  -2443.20777382 </i>
    <i name="XCdc">     14.03666652 </i>
    <i name="pawpsdc">   2085.01717298 </i>
    <i name="pawaedc">  -2052.70430355 </i>
    <i name="eentropy">     -0.00000000 </i>
    <i name="bandstr">   -169.10564614 </i>
    <i name="atom">    704.16778566 </i>
    <i name="e_fr_energy">    -21.45500026 </i>
    <i name="e_wo_entrp">    -21.45500026 </i>
    <i name="e_0_energy">    -21.45500026 </i>
   </energy>
  </scstep>
  <scstep>
   <time name="dav">    1.91    1.91</time>
   <time name="total">    2.03    2.03</time>
   <energy>
    <i name="e_fr_energy">    -21.45504424 </i>
    <i name="e_wo_entrp">    -21.45504424 </i>
    <i name="e_0_energy">    -21.45504424 </i>
   </energy>
  </scstep>
  <scstep>
   <time name="dav">    1.40    1.40</time>
   <time name="total">    1.52    1.52</time>
   <energy>
    <i name="e_fr_energy">    -21.45504338 </i>
    <i name="e_wo_entrp">    -21.45504338 </i>
    <i name="e_0_energy">    -21.45504338 </i>
   </energy>
  </scstep>
  <scstep>
   <time name="dav">    1.27    1.28</time>
   <time name="total">    1.39    1.39</time>
   <energy>
    <i name="e_fr_energy">    -21.45504396 </i>
    <i name="e_wo_entrp">    -21.45504396 </i>
    <i name="e_0_energy">    -21.45504396 </i>
   </energy>
  </scstep>
  <scstep>
   <time name="dav">    1.19    1.19</time>
   <time name="total">    1.31    1.31</time>
   <energy>
    <i name="e_fr_energy">    -21.45504389 </i>
    <i name="e_wo_entrp">    -21.45504389 </i>
    <i name="e_0_energy">    -21.45504389 </i>
   </energy>
  </scstep>
  <scstep>
   <time name="dav">    1.20    1.20</time>
   <time name="total">    1.22    1.22</time>
   <energy>
    <i name="alphaZ">      5.17806329 </i>
    <i name="ewald">   1835.16303479 </i>
    <i name="hartreedc">  -2443.20650849 </i>
    <i name="XCdc">     14.03729007 </i>
    <i name="pawpsdc">   2089.58969039 </i>
    <i name="pawaedc">  -2057.27842099 </i>
    <i name="eentropy">     -0.00000000 </i>
    <i name="bandstr">   -169.10597871 </i>
    <i name="atom">    704.16778566 </i>
    <i name="e_fr_energy">    -21.45504400 </i>
    <i name="e_wo_entrp">    -21.45504400 </i>
    <i name="e_0_energy">    -21.45504400 </i>
   </energy>
  </scstep>
  <structure>
   <crystal>
    <varray name="basis" >
     <v>       3.29720400       0.00000000       0.00000000 </v>
     <v>       0.00000000       4.69218900      -0.00005300 </v>
     <v>       0.00000000       0.00000000      20.02439000 </v>
    </varray>
    <i name="volume">    309.79942703 </i>
    <varray name="rec_basis" >
     <v>       0.30328727       0.00000000       0.00000000 </v>
     <v>       0.00000000       0.21312014       0.00000000 </v>
     <v>       0.00000000       0.00000056       0.04993910 </v>
    </varray>
   </crystal>
   <varray name="positions" >
    <v>       0.50000000       0.90857077       0.55226577 </v>
    <v>       0.50000000       0.09142923       0.44773423 </v>
    <v>      -0.00000000       0.40856618       0.44773423 </v>
    <v>       0.00000000       0.59143382       0.55226577 </v>
   </varray>
  </structure>
  <varray name="forces" >
   <v>      -0.00000003       0.00125615       0.00006763 </v>
   <v>       0.00000003      -0.00125615      -0.00006763 </v>
   <v>       0.00000002       0.00124402      -0.00006804 </v>
   <v>      -0.00000002      -0.00124402       0.00006804 </v>
  </varray>
  <varray name="stress" >
   <v>      -1.03230464      -0.00000017      -0.00000069 </v>
   <v>      -0.00000019      -1.73491438       0.00015092 </v>
   <v>      -0.00000061       0.00015093      -0.08008295 </v>
  </varray>
  <energy>
   <i name="e_fr_energy">    -21.45504400 </i>
   <i name="e_wo_entrp">    -21.45504400 </i>
   <i name="e_0_energy">     -0.00000000 </i>
  </energy>
  <time name="totalsc">    9.85    9.87</time>
  <eigenvalues>
   <array>
    <dimension dim="1">band</dimension>
    <dimension dim="2">kpoint</dimension>
    <dimension dim="3">spin</dimension>
    <field>eigene</field>
    <field>occ</field>
    <set>
     <set comment="spin 1">
      <set comment="kpoint 1">
       <r>  -17.2408    1.0000 </r>
       <r>  -14.8302    1.0000 </r>
       <r>  -11.5743    1.0000 </r>
       <r>   -7.9688    1.0000 </r>
       <r>   -7.0980    1.0000 </r>
       <r>   -6.7781    1.0000 </r>
       <r>   -5.6076    1.0000 </r>
       <r>   -4.0669    1.0000 </r>
       <r>   -3.9302    1.0000 </r>
       <r>   -2.3503    1.0000 </r>
       <r>   -1.3840    0.0000 </r>
       <r>   -0.6635    0.0000 </r>
       <r>    0.3300    0.0000 </r>
       <r>    0.9207    0.0000 </r>
       <r>    2.0838    0.0000 </r>
       <r>    2.2887    0.0000 </r>
      </set>
      <set comment="kpoint 2">
       <r>  -17.2162    1.0000 </r>
       <r>  -14.8045    1.0000 </r>
       <r>  -11.5809    1.0000 </r>
       <r>   -7.9504    1.0000 </r>
       <r>   -7.1124    1.0000 </r>
       <r>   -6.7565    1.0000 </r>
       <r>   -5.7711    1.0000 </r>
       <r>   -4.2389    1.0000 </r>
       <r>   -3.9210    1.0000 </r>
       <r>   -2.3500    1.0000 </r>
       <r>   -1.3612    0.0000 </r>
       <r>   -0.4386    0.0000 </r>
       <r>    0.5527    0.0000 </r>
       <r>    0.7695    0.0000 </r>
       <r>    2.1092    0.0000 </r>
       <r>    2.3161    0.0000 </r>
      </set>
      <set comment="kpoint 3">
       <r>  -17.1425    1.0000 </r>
       <r>  -14.7274    1.0000 </r>
       <r>  -11.6051    1.0000 </r>
       <r>   -7.8956    1.0000 </r>
       <r>   -7.1712    1.0000 </r>
       <r>   -6.6920    1.0000 </r>
       <r>   -6.1767    1.0000 </r>
       <r>   -4.6449    1.0000 </r>
       <r>   -3.8966    1.0000 </r>
       <r>   -2.3647    1.0000 </r>
       <r>   -1.2932    0.0000 </r>
       <r>    0.1668    0.0000 </r>
       <r>    0.3904    0.0000 </r>
       <r>    1.1061    0.0000 </r>
       <r>    2.1814    0.0000 </r>
       <r>    2.3981    0.0000 </r>
      </set>
      <set comment="kpoint 4">
       <r>  -17.0201    1.0000 </r>
       <r>  -14.5990    1.0000 </r>
       <r>  -11.6600    1.0000 </r>
       <r>   -7.8067    1.0000 </r>
       <r>   -7.3248    1.0000 </r>
       <r>   -6.6729    1.0000 </r>
       <r>   -6.5857    1.0000 </r>
       <r>   -5.0814    1.0000 </r>
       <r>   -3.8674    1.0000 </r>
       <r>   -2.4127    1.0000 </r>
       <r>   -1.1813    0.0000 </r>
       <r>   -0.0840    0.0000 </r>
       <r>    1.0188    0.0000 </r>
       <r>    1.7261    0.0000 </r>
       <r>    2.2575    0.0000 </r>
       <r>    2.5345    0.0000 </r>
      </set>
      <set comment="kpoint 5">
       <r>  -16.8494    1.0000 </r>
       <r>  -14.4196    1.0000 </r>
       <r>  -11.7667    1.0000 </r>
       <r>   -7.6877    1.0000 </r>
       <r>   -7.6409    1.0000 </r>
       <r>   -7.1450    1.0000 </r>
       <r>   -6.4397    1.0000 </r>
       <r>   -5.3847    1.0000 </r>
       <r>   -3.8530    1.0000 </r>
       <r>   -2.5043    1.0000 </r>
       <r>   -1.0285    0.0000 </r>
       <r>   -0.5480    0.0000 </r>
       <r>    1.8620    0.0000 </r>
       <r>    1.9592    0.0000 </r>
       <r>    1.9915    0.0000 </r>
       <r>    2.6051    0.0000 </r>
      </set>
      <set comment="kpoint 6">
       <r>  -16.6313    1.0000 </r>
       <r>  -14.1896    1.0000 </r>
       <r>  -11.9491    1.0000 </r>
       <r>   -8.1304    1.0000 </r>
       <r>   -7.5457    1.0000 </r>
       <r>   -7.5200    1.0000 </r>
       <r>   -6.2576    1.0000 </r>
       <r>   -5.4989    1.0000 </r>
       <r>   -3.8828    1.0000 </r>
       <r>   -2.6486    1.0000 </r>
       <r>   -0.9208    0.0000 </r>
       <r>   -0.8414    0.0000 </r>
       <r>    1.3699    0.0000 </r>
       <r>    1.4155    0.0000 </r>
       <r>    2.6041    0.0000 </r>
       <r>    2.8249    0.0000 </r>
      </set>
      <set comment="kpoint 7">
       <r>  -16.3670    1.0000 </r>
       <r>  -13.9094    1.0000 </r>
       <r>  -12.2233    1.0000 </r>
       <r>   -8.7285    1.0000 </r>
       <r>   -7.7579    1.0000 </r>
       <r>   -7.3926    1.0000 </r>
       <r>   -6.0449    1.0000 </r>
       <r>   -5.4703    1.0000 </r>
       <r>   -3.9830    1.0000 </r>
       <r>   -2.8505    1.0000 </r>
       <r>   -1.1402    0.0000 </r>
       <r>   -0.6394    0.0000 </r>
       <r>    0.7543    0.0000 </r>
       <r>    0.8924    0.0000 </r>
       <r>    2.2344    0.0000 </r>
       <r>    3.1222    0.0000 </r>
      </set>
      <set comment="kpoint 8">
       <r>  -16.0581    1.0000 </r>
       <r>  -13.5797    1.0000 </r>
       <r>  -12.5859    1.0000 </r>
       <r>   -9.3686    1.0000 </r>
       <r>   -7.8514    1.0000 </r>
       <r>   -7.2480    1.0000 </r>
       <r>   -5.8104    1.0000 </r>
       <r>   -5.3628    1.0000 </r>
       <r>   -4.1469    1.0000 </r>
       <r>   -3.1068    1.0000 </r>
       <r>   -1.1805    0.0000 </r>
       <r>   -0.4934    0.0000 </r>
       <r>    0.1618    0.0000 </r>
       <r>    0.5018    0.0000 </r>
       <r>    1.7618    0.0000 </r>
       <r>    3.1244    0.0000 </r>
      </set>
      <set comment="kpoint 9">
       <r>  -15.7067    1.0000 </r>
       <r>  -13.2013    1.0000 </r>
       <r>  -13.0151    1.0000 </r>
       <r>  -10.0114    1.0000 </r>
       <r>   -7.8196    1.0000 </r>
       <r>   -7.1421    1.0000 </r>
       <r>   -5.5679    1.0000 </r>
       <r>   -5.2255    1.0000 </r>
       <r>   -4.3192    1.0000 </r>
       <r>   -3.4029    1.0000 </r>
       <r>   -1.0603    0.0000 </r>
       <r>   -0.5781    0.0000 </r>
       <r>   -0.3592    0.0000 </r>
       <r>    0.4436    0.0000 </r>
       <r>    1.2863    0.0000 </r>
       <r>    2.7634    0.0000 </r>
      </set>
      <set comment="kpoint 10">
       <r>  -15.3161    1.0000 </r>
       <r>  -13.4825    1.0000 </r>
       <r>  -12.7753    1.0000 </r>
       <r>  -10.6356    1.0000 </r>
       <r>   -7.6958    1.0000 </r>
       <r>   -7.1118    1.0000 </r>
       <r>   -5.3387    1.0000 </r>
       <r>   -5.1002    1.0000 </r>
       <r>   -4.4228    1.0000 </r>
       <r>   -3.7148    1.0000 </r>
       <r>   -0.8365    0.0000 </r>
       <r>   -0.8175    0.0000 </r>
       <r>   -0.7721    0.0000 </r>
       <r>    0.6871    0.0000 </r>
       <r>    0.8114    0.0000 </r>
       <r>    2.3418    0.0000 </r>
      </set>
      <set comment="kpoint 11">
       <r>  -14.8906    1.0000 </r>
       <r>  -13.9626    1.0000 </r>
       <r>  -12.3033    1.0000 </r>
       <r>  -11.2298    1.0000 </r>
       <r>   -7.5184    1.0000 </r>
       <r>   -7.1797    1.0000 </r>
       <r>   -5.1525    1.0000 </r>
       <r>   -5.0280    1.0000 </r>
       <r>   -4.4029    1.0000 </r>
       <r>   -4.0112    1.0000 </r>
       <r>   -1.0539    0.0000 </r>
       <r>   -1.0401    0.0000 </r>
       <r>   -0.4861    0.0000 </r>
       <r>    0.3470    0.0000 </r>
       <r>    1.0480    0.0000 </r>
       <r>    1.8987    0.0000 </r>
      </set>
      <set comment="kpoint 12">
       <r>  -14.4363    1.0000 </r>
       <r>  -14.4363    1.0000 </r>
       <r>  -11.7871    1.0000 </r>
       <r>  -11.7871    1.0000 </r>
       <r>   -7.3301    1.0000 </r>
       <r>   -7.3301    1.0000 </r>
       <r>   -5.0424    1.0000 </r>
       <r>   -5.0423    1.0000 </r>
       <r>   -4.2546    1.0000 </r>
       <r>   -4.2546    1.0000 </r>
       <r>   -1.1346    0.0000 </r>
       <r>   -1.1346    0.0000 </r>
       <r>   -0.0914    0.0000 </r>
       <r>   -0.0914    0.0000 </r>
       <r>    1.4605    0.0000 </r>
       <r>    1.4605    0.0000 </r>
      </set>
      <set comment="kpoint 13">
       <r>  -17.2202    1.0000 </r>
       <r>  -14.8621    1.0000 </r>
       <r>  -11.5740    1.0000 </r>
       <r>   -8.1374    1.0000 </r>
       <r>   -6.9794    1.0000 </r>
       <r>   -6.6930    1.0000 </r>
       <r>   -5.5919    1.0000 </r>
       <r>   -4.0828    1.0000 </r>
       <r>   -3.8478    1.0000 </r>
       <r>   -2.5424    1.0000 </r>
       <r>   -1.2038    0.0000 </r>
       <r>   -0.6475    0.0000 </r>
       <r>    0.2844    0.0000 </r>
       <r>    0.9131    0.0000 </r>
       <r>    2.1396    0.0000 </r>
       <r>    2.3177    0.0000 </r>
      </set>
      <set comment="kpoint 14">
       <r>  -17.1956    1.0000 </r>
       <r>  -14.8366    1.0000 </r>
       <r>  -11.5796    1.0000 </r>
       <r>   -8.1227    1.0000 </r>
       <r>   -6.9885    1.0000 </r>
       <r>   -6.6782    1.0000 </r>
       <r>   -5.7490    1.0000 </r>
       <r>   -4.2597    1.0000 </r>
       <r>   -3.8387    1.0000 </r>
       <r>   -2.5387    1.0000 </r>
       <r>   -1.1844    0.0000 </r>
       <r>   -0.4231    0.0000 </r>
       <r>    0.5002    0.0000 </r>
       <r>    0.7730    0.0000 </r>
       <r>    2.1639    0.0000 </r>
       <r>    2.3451    0.0000 </r>
      </set>
      <set comment="kpoint 15">
       <r>  -17.1220    1.0000 </r>
       <r>  -14.7600    1.0000 </r>
       <r>  -11.6006    1.0000 </r>
       <r>   -8.0823    1.0000 </r>
       <r>   -7.0285    1.0000 </r>
       <r>   -6.6519    1.0000 </r>
       <r>   -6.1184    1.0000 </r>
       <r>   -4.6736    1.0000 </r>
       <r>   -3.8201    1.0000 </r>
       <r>   -2.5402    1.0000 </r>
       <r>   -1.1297    0.0000 </r>
       <r>    0.1814    0.0000 </r>
       <r>    0.3813    0.0000 </r>
       <r>    1.0796    0.0000 </r>
       <r>    2.2330    0.0000 </r>
       <r>    2.4269    0.0000 </r>
      </set>
      <set comment="kpoint 16">
       <r>  -16.9997    1.0000 </r>
       <r>  -14.6326    1.0000 </r>
       <r>  -11.6502    1.0000 </r>
       <r>   -8.0320    1.0000 </r>
       <r>   -7.1377    1.0000 </r>
       <r>   -6.7997    1.0000 </r>
       <r>   -6.3654    1.0000 </r>
       <r>   -5.1177    1.0000 </r>
       <r>   -3.8036    1.0000 </r>
       <r>   -2.5652    1.0000 </r>
       <r>   -1.0401    0.0000 </r>
       <r>   -0.0744    0.0000 </r>
       <r>    1.0293    0.0000 </r>
       <r>    1.7127    0.0000 </r>
       <r>    2.2816    0.0000 </r>
       <r>    2.5429    0.0000 </r>
      </set>
      <set comment="kpoint 17">
       <r>  -16.8291    1.0000 </r>
       <r>  -14.4548    1.0000 </r>
       <r>  -11.7492    1.0000 </r>
       <r>   -8.0359    1.0000 </r>
       <r>   -7.3292    1.0000 </r>
       <r>   -7.2090    1.0000 </r>
       <r>   -6.2903    1.0000 </r>
       <r>   -5.4237    1.0000 </r>
       <r>   -3.8094    1.0000 </r>
       <r>   -2.6281    1.0000 </r>
       <r>   -0.9144    0.0000 </r>
       <r>   -0.5143    0.0000 </r>
       <r>    1.7631    0.0000 </r>
       <r>    1.9091    0.0000 </r>
       <r>    2.0869    0.0000 </r>
       <r>    2.5738    0.0000 </r>
      </set>
      <set comment="kpoint 18">
       <r>  -16.6113    1.0000 </r>
       <r>  -14.2276    1.0000 </r>
       <r>  -11.9224    1.0000 </r>
       <r>   -8.2831    1.0000 </r>
       <r>   -7.5730    1.0000 </r>
       <r>   -7.4330    1.0000 </r>
       <r>   -6.1300    1.0000 </r>
       <r>   -5.5357    1.0000 </r>
       <r>   -3.8649    1.0000 </r>
       <r>   -2.7421    1.0000 </r>
       <r>   -0.8562    0.0000 </r>
       <r>   -0.7554    0.0000 </r>
       <r>    1.2496    0.0000 </r>
       <r>    1.4526    0.0000 </r>
       <r>    2.6198    0.0000 </r>
       <r>    2.9428    0.0000 </r>
      </set>
      <set comment="kpoint 19">
       <r>  -16.3473    1.0000 </r>
       <r>  -13.9529    1.0000 </r>
       <r>  -12.1854    1.0000 </r>
       <r>   -8.7978    1.0000 </r>
       <r>   -7.8079    1.0000 </r>
       <r>   -7.3655    1.0000 </r>
       <r>   -5.9335    1.0000 </r>
       <r>   -5.5092    1.0000 </r>
       <r>   -3.9877    1.0000 </r>
       <r>   -2.9155    1.0000 </r>
       <r>   -1.0442    0.0000 </r>
       <r>   -0.5798    0.0000 </r>
       <r>    0.7275    0.0000 </r>
       <r>    0.8459    0.0000 </r>
       <r>    2.3754    0.0000 </r>
       <r>    3.1881    0.0000 </r>
      </set>
      <set comment="kpoint 20">
       <r>  -16.0388    1.0000 </r>
       <r>  -13.6368    1.0000 </r>
       <r>  -12.5304    1.0000 </r>
       <r>   -9.4104    1.0000 </r>
       <r>   -7.8988    1.0000 </r>
       <r>   -7.2457    1.0000 </r>
       <r>   -5.7183    1.0000 </r>
       <r>   -5.4180    1.0000 </r>
       <r>   -4.1548    1.0000 </r>
       <r>   -3.1451    1.0000 </r>
       <r>   -1.0631    0.0000 </r>
       <r>   -0.4668    0.0000 </r>
       <r>    0.2546    0.0000 </r>
       <r>    0.3496    0.0000 </r>
       <r>    1.9564    0.0000 </r>
       <r>    3.0668    0.0000 </r>
      </set>
      <set comment="kpoint 21">
       <r>  -15.6882    1.0000 </r>
       <r>  -13.3320    1.0000 </r>
       <r>  -12.8841    1.0000 </r>
       <r>  -10.0412    1.0000 </r>
       <r>   -7.8628    1.0000 </r>
       <r>   -7.1451    1.0000 </r>
       <r>   -5.5038    1.0000 </r>
       <r>   -5.3198    1.0000 </r>
       <r>   -4.2962    1.0000 </r>
       <r>   -3.4135    1.0000 </r>
       <r>   -0.9433    0.0000 </r>
       <r>   -0.6085    0.0000 </r>
       <r>   -0.2621    0.0000 </r>
       <r>    0.3254    0.0000 </r>
       <r>    1.5180    0.0000 </r>
       <r>    2.7150    0.0000 </r>
      </set>
      <set comment="kpoint 22">
       <r>  -15.2988    1.0000 </r>
       <r>  -13.5087    1.0000 </r>
       <r>  -12.7482    1.0000 </r>
       <r>  -10.6587    1.0000 </r>
       <r>   -7.7327    1.0000 </r>
       <r>   -7.1156    1.0000 </r>
       <r>   -5.3184    1.0000 </r>
       <r>   -5.2487    1.0000 </r>
       <r>   -4.3389    1.0000 </r>
       <r>   -3.6913    1.0000 </r>
       <r>   -0.8881    0.0000 </r>
       <r>   -0.8404    0.0000 </r>
       <r>   -0.5483    0.0000 </r>
       <r>    0.5220    0.0000 </r>
       <r>    1.1208    0.0000 </r>
       <r>    2.3018    0.0000 </r>
      </set>
      <set comment="kpoint 23">
       <r>  -14.8752    1.0000 </r>
       <r>  -13.9593    1.0000 </r>
       <r>  -12.3060    1.0000 </r>
       <r>  -11.2477    1.0000 </r>
       <r>   -7.5466    1.0000 </r>
       <r>   -7.1882    1.0000 </r>
       <r>   -5.1979    1.0000 </r>
       <r>   -5.1967    1.0000 </r>
       <r>   -4.2751    1.0000 </r>
       <r>   -3.9426    1.0000 </r>
       <r>   -1.0983    0.0000 </r>
       <r>   -1.0484    0.0000 </r>
       <r>   -0.3049    0.0000 </r>
       <r>    0.4419    0.0000 </r>
       <r>    1.1023    0.0000 </r>
       <r>    1.8700    0.0000 </r>
      </set>
      <set comment="kpoint 24">
       <r>  -14.4247    1.0000 </r>
       <r>  -14.4247    1.0000 </r>
       <r>  -11.7994    1.0000 </r>
       <r>  -11.7994    1.0000 </r>
       <r>   -7.3481    1.0000 </r>
       <r>   -7.3481    1.0000 </r>
       <r>   -5.1651    1.0000 </r>
       <r>   -5.1651    1.0000 </r>
       <r>   -4.1393    1.0000 </r>
       <r>   -4.1393    1.0000 </r>
       <r>   -1.1598    0.0000 </r>
       <r>   -1.1598    0.0000 </r>
       <r>    0.0653    0.0000 </r>
       <r>    0.0653    0.0000 </r>
       <r>    1.4521    0.0000 </r>
       <r>    1.4521    0.0000 </r>
      </set>
      <set comment="kpoint 25">
       <r>  -14.8752    1.0000 </r>
       <r>  -13.9593    1.0000 </r>
       <r>  -12.3060    1.0000 </r>
       <r>  -11.2477    1.0000 </r>
       <r>   -7.5466    1.0000 </r>
       <r>   -7.1882    1.0000 </r>
       <r>   -5.1979    1.0000 </r>
       <r>   -5.1967    1.0000 </r>
       <r>   -4.2751    1.0000 </r>
       <r>   -3.9426    1.0000 </r>
       <r>   -1.0983    0.0000 </r>
       <r>   -1.0484    0.0000 </r>
       <r>   -0.3049    0.0000 </r>
       <r>    0.4419    0.0000 </r>
       <r>    1.1023    0.0000 </r>
       <r>    1.8700    0.0000 </r>
      </set>
      <set comment="kpoint 26">
       <r>  -15.2988    1.0000 </r>
       <r>  -13.5087    1.0000 </r>
       <r>  -12.7482    1.0000 </r>
       <r>  -10.6587    1.0000 </r>
       <r>   -7.7327    1.0000 </r>
       <r>   -7.1156    1.0000 </r>
       <r>   -5.3184    1.0000 </r>
       <r>   -5.2487    1.0000 </r>
       <r>   -4.3389    1.0000 </r>
       <r>   -3.6913    1.0000 </r>
       <r>   -0.8881    0.0000 </r>
       <r>   -0.8404    0.0000 </r>
       <r>   -0.5483    0.0000 </r>
       <r>    0.5220    0.0000 </r>
       <r>    1.1208    0.0000 </r>
       <r>    2.3018    0.0000 </r>
      </set>
      <set comment="kpoint 27">
       <r>  -15.6882    1.0000 </r>
       <r>  -13.3320    1.0000 </r>
       <r>  -12.8841    1.0000 </r>
       <r>  -10.0412    1.0000 </r>
       <r>   -7.8628    1.0000 </r>
       <r>   -7.1451    1.0000 </r>
       <r>   -5.5038    1.0000 </r>
       <r>   -5.3198    1.0000 </r>
       <r>   -4.2962    1.0000 </r>
       <r>   -3.4135    1.0000 </r>
       <r>   -0.9433    0.0000 </r>
       <r>   -0.6085    0.0000 </r>
       <r>   -0.2621    0.0000 </r>
       <r>    0.3254    0.0000 </r>
       <r>    1.5180    0.0000 </r>
       <r>    2.7150    0.0000 </r>
      </set>
      <set comment="kpoint 28">
       <r>  -16.0388    1.0000 </r>
       <r>  -13.6368    1.0000 </r>
       <r>  -12.5304    1.0000 </r>
       <r>   -9.4104    1.0000 </r>
       <r>   -7.8988    1.0000 </r>
       <r>   -7.2457    1.0000 </r>
       <r>   -5.7183    1.0000 </r>
       <r>   -5.4180    1.0000 </r>
       <r>   -4.1548    1.0000 </r>
       <r>   -3.1451    1.0000 </r>
       <r>   -1.0631    0.0000 </r>
       <r>   -0.4668    0.0000 </r>
       <r>    0.2546    0.0000 </r>
       <r>    0.3496    0.0000 </r>
       <r>    1.9564    0.0000 </r>
       <r>    3.0668    0.0000 </r>
      </set>
      <set comment="kpoint 29">
       <r>  -16.3473    1.0000 </r>
       <r>  -13.9529    1.0000 </r>
       <r>  -12.1854    1.0000 </r>
       <r>   -8.7978    1.0000 </r>
       <r>   -7.8079    1.0000 </r>
       <r>   -7.3655    1.0000 </r>
       <r>   -5.9335    1.0000 </r>
       <r>   -5.5092    1.0000 </r>
       <r>   -3.9877    1.0000 </r>
       <r>   -2.9155    1.0000 </r>
       <r>   -1.0442    0.0000 </r>
       <r>   -0.5798    0.0000 </r>
       <r>    0.7275    0.0000 </r>
       <r>    0.8459    0.0000 </r>
       <r>    2.3754    0.0000 </r>
       <r>    3.1880    0.0000 </r>
      </set>
      <set comment="kpoint 30">
       <r>  -16.6113    1.0000 </r>
       <r>  -14.2276    1.0000 </r>
       <r>  -11.9224    1.0000 </r>
       <r>   -8.2831    1.0000 </r>
       <r>   -7.5730    1.0000 </r>
       <r>   -7.4330    1.0000 </r>
       <r>   -6.1300    1.0000 </r>
       <r>   -5.5357    1.0000 </r>
       <r>   -3.8649    1.0000 </r>
       <r>   -2.7421    1.0000 </r>
       <r>   -0.8562    0.0000 </r>
       <r>   -0.7554    0.0000 </r>
       <r>    1.2496    0.0000 </r>
       <r>    1.4526    0.0000 </r>
       <r>    2.6198    0.0000 </r>
       <r>    2.9428    0.0000 </r>
      </set>
      <set comment="kpoint 31">
       <r>  -16.8291    1.0000 </r>
       <r>  -14.4548    1.0000 </r>
       <r>  -11.7492    1.0000 </r>
       <r>   -8.0359    1.0000 </r>
       <r>   -7.3292    1.0000 </r>
       <r>   -7.2090    1.0000 </r>
       <r>   -6.2903    1.0000 </r>
       <r>   -5.4237    1.0000 </r>
       <r>   -3.8094    1.0000 </r>
       <r>   -2.6281    1.0000 </r>
       <r>   -0.9144    0.0000 </r>
       <r>   -0.5143    0.0000 </r>
       <r>    1.7631    0.0000 </r>
       <r>    1.9091    0.0000 </r>
       <r>    2.0869    0.0000 </r>
       <r>    2.5738    0.0000 </r>
      </set>
      <set comment="kpoint 32">
       <r>  -16.9997    1.0000 </r>
       <r>  -14.6326    1.0000 </r>
       <r>  -11.6502    1.0000 </r>
       <r>   -8.0320    1.0000 </r>
       <r>   -7.1377    1.0000 </r>
       <r>   -6.7997    1.0000 </r>
       <r>   -6.3654    1.0000 </r>
       <r>   -5.1177    1.0000 </r>
       <r>   -3.8036    1.0000 </r>
       <r>   -2.5652    1.0000 </r>
       <r>   -1.0401    0.0000 </r>
       <r>   -0.0744    0.0000 </r>
       <r>    1.0293    0.0000 </r>
       <r>    1.7127    0.0000 </r>
       <r>    2.2816    0.0000 </r>
       <r>    2.5436    0.0000 </r>
      </set>
      <set comment="kpoint 33">
       <r>  -17.1220    1.0000 </r>
       <r>  -14.7600    1.0000 </r>
       <r>  -11.6006    1.0000 </r>
       <r>   -8.0823    1.0000 </r>
       <r>   -7.0285    1.0000 </r>
       <r>   -6.6519    1.0000 </r>
       <r>   -6.1184    1.0000 </r>
       <r>   -4.6736    1.0000 </r>
       <r>   -3.8201    1.0000 </r>
       <r>   -2.5402    1.0000 </r>
       <r>   -1.1297    0.0000 </r>
       <r>    0.1814    0.0000 </r>
       <r>    0.3813    0.0000 </r>
       <r>    1.0796    0.0000 </r>
       <r>    2.2330    0.0000 </r>
       <r>    2.4269    0.0000 </r>
      </set>
      <set comment="kpoint 34">
       <r>  -17.1956    1.0000 </r>
       <r>  -14.8366    1.0000 </r>
       <r>  -11.5796    1.0000 </r>
       <r>   -8.1227    1.0000 </r>
       <r>   -6.9885    1.0000 </r>
       <r>   -6.6782    1.0000 </r>
       <r>   -5.7490    1.0000 </r>
       <r>   -4.2597    1.0000 </r>
       <r>   -3.8387    1.0000 </r>
       <r>   -2.5387    1.0000 </r>
       <r>   -1.1844    0.0000 </r>
       <r>   -0.4231    0.0000 </r>
       <r>    0.5002    0.0000 </r>
       <r>    0.7730    0.0000 </r>
       <r>    2.1639    0.0000 </r>
       <r>    2.3451    0.0000 </r>
      </set>
      <set comment="kpoint 35">
       <r>  -17.1588    1.0000 </r>
       <r>  -14.9568    1.0000 </r>
       <r>  -11.5646    1.0000 </r>
       <r>   -8.4989    1.0000 </r>
       <r>   -6.7519    1.0000 </r>
       <r>   -6.4489    1.0000 </r>
       <r>   -5.5451    1.0000 </r>
       <r>   -4.1306    1.0000 </r>
       <r>   -3.6251    1.0000 </r>
       <r>   -2.9297    1.0000 </r>
       <r>   -0.8481    0.0000 </r>
       <r>   -0.6000    0.0000 </r>
       <r>    0.1525    0.0000 </r>
       <r>    0.8973    0.0000 </r>
       <r>    2.3005    0.0000 </r>
       <r>    2.4041    0.0000 </r>
      </set>
      <set comment="kpoint 36">
       <r>  -17.1343    1.0000 </r>
       <r>  -14.9316    1.0000 </r>
       <r>  -11.5675    1.0000 </r>
       <r>   -8.4873    1.0000 </r>
       <r>   -6.7541    1.0000 </r>
       <r>   -6.4585    1.0000 </r>
       <r>   -5.6787    1.0000 </r>
       <r>   -4.3155    1.0000 </r>
       <r>   -3.6222    1.0000 </r>
       <r>   -2.9224    1.0000 </r>
       <r>   -0.8337    0.0000 </r>
       <r>   -0.3761    0.0000 </r>
       <r>    0.3637    0.0000 </r>
       <r>    0.7759    0.0000 </r>
       <r>    2.3220    0.0000 </r>
       <r>    2.4313    0.0000 </r>
      </set>
      <set comment="kpoint 37">
       <r>  -17.0608    1.0000 </r>
       <r>  -14.8563    1.0000 </r>
       <r>  -11.5803    1.0000 </r>
       <r>   -8.4568    1.0000 </r>
       <r>   -6.7730    1.0000 </r>
       <r>   -6.5522    1.0000 </r>
       <r>   -5.9337    1.0000 </r>
       <r>   -4.7484    1.0000 </r>
       <r>   -3.6234    1.0000 </r>
       <r>   -2.9093    1.0000 </r>
       <r>   -0.7946    0.0000 </r>
       <r>    0.2255    0.0000 </r>
       <r>    0.3706    0.0000 </r>
       <r>    0.9986    0.0000 </r>
       <r>    2.3821    0.0000 </r>
       <r>    2.5128    0.0000 </r>
      </set>
      <set comment="kpoint 38">
       <r>  -16.9388    1.0000 </r>
       <r>  -14.7314    1.0000 </r>
       <r>  -11.6157    1.0000 </r>
       <r>   -8.4239    1.0000 </r>
       <r>   -6.8765    1.0000 </r>
       <r>   -6.8507    1.0000 </r>
       <r>   -6.0179    1.0000 </r>
       <r>   -5.2121    1.0000 </r>
       <r>   -3.6444    1.0000 </r>
       <r>   -2.9048    1.0000 </r>
       <r>   -0.7318    0.0000 </r>
       <r>   -0.0257    0.0000 </r>
       <r>    1.0566    0.0000 </r>
       <r>    1.6588    0.0000 </r>
       <r>    2.1261    0.0000 </r>
       <r>    2.4940    0.0000 </r>
      </set>
      <set comment="kpoint 39">
       <r>  -16.7687    1.0000 </r>
       <r>  -14.5577    1.0000 </r>
       <r>  -11.6949    1.0000 </r>
       <r>   -8.4348    1.0000 </r>
       <r>   -7.3059    1.0000 </r>
       <r>   -7.0357    1.0000 </r>
       <r>   -5.9456    1.0000 </r>
       <r>   -5.5215    1.0000 </r>
       <r>   -3.7059    1.0000 </r>
       <r>   -2.9232    1.0000 </r>
       <r>   -0.6452    0.0000 </r>
       <r>   -0.3962    0.0000 </r>
       <r>    1.4310    0.0000 </r>
       <r>    2.0069    0.0000 </r>
       <r>    2.1609    0.0000 </r>
       <r>    2.6094    0.0000 </r>
      </set>
      <set comment="kpoint 40">
       <r>  -16.5515    1.0000 </r>
       <r>  -14.3373    1.0000 </r>
       <r>  -11.8435    1.0000 </r>
       <r>   -8.5936    1.0000 </r>
       <r>   -7.6757    1.0000 </r>
       <r>   -7.2442    1.0000 </r>
       <r>   -5.8118    1.0000 </r>
       <r>   -5.6222    1.0000 </r>
       <r>   -3.8271    1.0000 </r>
       <r>   -2.9805    1.0000 </r>
       <r>   -0.6572    0.0000 </r>
       <r>   -0.5359    0.0000 </r>
       <r>    0.9032    0.0000 </r>
       <r>    1.6705    0.0000 </r>
       <r>    2.6785    0.0000 </r>
       <r>    3.0459    0.0000 </r>
      </set>
      <set comment="kpoint 41">
       <r>  -16.2884    1.0000 </r>
       <r>  -14.0747    1.0000 </r>
       <r>  -12.0785    1.0000 </r>
       <r>   -8.9849    1.0000 </r>
       <r>   -7.9157    1.0000 </r>
       <r>   -7.3092    1.0000 </r>
       <r>   -5.6514    1.0000 </r>
       <r>   -5.6001    1.0000 </r>
       <r>   -4.0005    1.0000 </r>
       <r>   -3.0889    1.0000 </r>
       <r>   -0.7697    0.0000 </r>
       <r>   -0.4176    0.0000 </r>
       <r>    0.3978    0.0000 </r>
[...]
       <r>    3.2753    0.0000 </r>
       <r>    3.3463    0.0000 </r>
      </set>
      <set comment="kpoint 161">
       <r>  -15.4718    1.0000 </r>
       <r>  -15.2302    1.0000 </r>
       <r>  -10.8974    1.0000 </r>
       <r>  -10.5765    1.0000 </r>
       <r>   -7.8889    1.0000 </r>
       <r>   -7.7381    1.0000 </r>
       <r>   -5.2333    1.0000 </r>
       <r>   -5.0036    1.0000 </r>
       <r>   -3.8778    1.0000 </r>
       <r>   -3.8351    1.0000 </r>
       <r>    0.1554    0.0000 </r>
       <r>    0.4940    0.0000 </r>
       <r>    1.0919    0.0000 </r>
       <r>    1.3876    0.0000 </r>
       <r>    3.1937    0.0000 </r>
       <r>    3.3165    0.0000 </r>
      </set>
      <set comment="kpoint 162">
       <r>  -15.7208    1.0000 </r>
       <r>  -15.4755    1.0000 </r>
       <r>  -10.7751    1.0000 </r>
       <r>  -10.4491    1.0000 </r>
       <r>   -7.5336    1.0000 </r>
       <r>   -7.3777    1.0000 </r>
       <r>   -5.1526    1.0000 </r>
       <r>   -4.8687    1.0000 </r>
       <r>   -3.8305    1.0000 </r>
       <r>   -3.7527    1.0000 </r>
       <r>    0.2164    0.0000 </r>
       <r>    0.4622    0.0000 </r>
       <r>    1.1786    0.0000 </r>
       <r>    1.5096    0.0000 </r>
       <r>    2.8449    0.0000 </r>
       <r>    3.1306    0.0000 </r>
      </set>
      <set comment="kpoint 163">
       <r>  -15.9291    1.0000 </r>
       <r>  -15.6817    1.0000 </r>
       <r>  -10.7479    1.0000 </r>
       <r>  -10.4248    1.0000 </r>
       <r>   -7.0142    1.0000 </r>
       <r>   -6.8472    1.0000 </r>
       <r>   -5.1807    1.0000 </r>
       <r>   -4.8620    1.0000 </r>
       <r>   -3.7677    1.0000 </r>
       <r>   -3.5717    1.0000 </r>
       <r>    0.3656    0.0000 </r>
       <r>    0.5016    0.0000 </r>
       <r>    1.1791    0.0000 </r>
       <r>    1.5352    0.0000 </r>
       <r>    2.2350    0.0000 </r>
       <r>    2.4688    0.0000 </r>
      </set>
      <set comment="kpoint 164">
       <r>  -16.0934    1.0000 </r>
       <r>  -15.8450    1.0000 </r>
       <r>  -10.7692    1.0000 </r>
       <r>  -10.4511    1.0000 </r>
       <r>   -6.3985    1.0000 </r>
       <r>   -6.2211    1.0000 </r>
       <r>   -5.2451    1.0000 </r>
       <r>   -4.9122    1.0000 </r>
       <r>   -3.7250    1.0000 </r>
       <r>   -3.4275    1.0000 </r>
       <r>    0.5271    0.0000 </r>
       <r>    0.5566    0.0000 </r>
       <r>    1.1051    0.0000 </r>
       <r>    1.4054    0.0000 </r>
       <r>    1.6632    0.0000 </r>
       <r>    1.7675    0.0000 </r>
      </set>
      <set comment="kpoint 165">
       <r>  -16.2120    1.0000 </r>
       <r>  -15.9628    1.0000 </r>
       <r>  -10.8039    1.0000 </r>
       <r>  -10.4899    1.0000 </r>
       <r>   -5.7599    1.0000 </r>
       <r>   -5.5855    1.0000 </r>
       <r>   -5.2985    1.0000 </r>
       <r>   -4.9688    1.0000 </r>
       <r>   -3.7543    1.0000 </r>
       <r>   -3.3735    1.0000 </r>
       <r>    0.3458    0.0000 </r>
       <r>    0.3625    0.0000 </r>
       <r>    1.0896    0.0000 </r>
       <r>    1.1597    0.0000 </r>
       <r>    1.4395    0.0000 </r>
       <r>    1.5395    0.0000 </r>
      </set>
      <set comment="kpoint 166">
       <r>  -16.2835    1.0000 </r>
       <r>  -16.0340    1.0000 </r>
       <r>  -10.8314    1.0000 </r>
       <r>  -10.5198    1.0000 </r>
       <r>   -5.3663    1.0000 </r>
       <r>   -5.1996    1.0000 </r>
       <r>   -5.0084    1.0000 </r>
       <r>   -5.0082    1.0000 </r>
       <r>   -3.8694    1.0000 </r>
       <r>   -3.4204    1.0000 </r>
       <r>   -0.0755    0.0000 </r>
       <r>   -0.0425    0.0000 </r>
       <r>    1.1457    0.0000 </r>
       <r>    1.2231    0.0000 </r>
       <r>    1.4584    0.0000 </r>
       <r>    1.4927    0.0000 </r>
      </set>
     </set>
    </set>
   </array>
  </eigenvalues>
  <separator name="orbital magnetization" >
   <v name="MAGDIPOLOUT">      0.00000000      0.00000000      0.00000000</v>
  </separator>
  <dos>
   <i name="efermi">     -2.20769581 </i>
   <total>
    <array>
     <dimension dim="1">gridpoints</dimension>
     <dimension dim="2">spin</dimension>
     <field>energy</field>
     <field>total</field>
     <field>integrated</field>
     <set>
      <set comment="spin 1">
       <r>   -18.2788     0.0000     0.0000 </r>
       <r>   -18.2027     0.0000     0.0000 </r>
       <r>   -18.1266     0.0000     0.0000 </r>
       <r>   -18.0505     0.0000     0.0000 </r>
       <r>   -17.9743     0.0000     0.0000 </r>
       <r>   -17.8982     0.0000     0.0000 </r>
       <r>   -17.8221     0.0000     0.0000 </r>
       <r>   -17.7460     0.0000     0.0000 </r>
       <r>   -17.6698     0.0000     0.0000 </r>
       <r>   -17.5937     0.0000     0.0000 </r>
       <r>   -17.5176     0.0000     0.0000 </r>
       <r>   -17.4415     0.0000     0.0000 </r>
       <r>   -17.3654     0.0000     0.0000 </r>
       <r>   -17.2892     0.0000     0.0000 </r>
       <r>   -17.2131     0.3157     0.0240 </r>
       <r>   -17.1370     0.8352     0.0876 </r>
       <r>   -17.0609     0.7532     0.1449 </r>
       <r>   -16.9848     1.0070     0.2216 </r>
       <r>   -16.9086     0.8356     0.2852 </r>
       <r>   -16.8325     0.8623     0.3508 </r>
       <r>   -16.7564     0.8557     0.4160 </r>
       <r>   -16.6803     0.8707     0.4823 </r>
       <r>   -16.6041     0.9665     0.5558 </r>
       <r>   -16.5280     0.9306     0.6267 </r>
       <r>   -16.4519     0.8548     0.6917 </r>
       <r>   -16.3758     0.4799     0.7283 </r>
       <r>   -16.2997     1.5128     0.8434 </r>
       <r>   -16.2235     0.6934     0.8962 </r>
       <r>   -16.1474     0.9701     0.9700 </r>
       <r>   -16.0713     0.6506     1.0196 </r>
       <r>   -15.9952     1.2311     1.1133 </r>
       <r>   -15.9191     1.1462     1.2005 </r>
       <r>   -15.8429     0.8867     1.2680 </r>
       <r>   -15.7668     0.6144     1.3148 </r>
       <r>   -15.6907     1.4547     1.4255 </r>
       <r>   -15.6146     0.9422     1.4972 </r>
       <r>   -15.5384     0.9760     1.5715 </r>
       <r>   -15.4623     1.0190     1.6491 </r>
       <r>   -15.3862     1.3043     1.7484 </r>
       <r>   -15.3101     0.6092     1.7948 </r>
       <r>   -15.2340     1.4811     1.9075 </r>
       <r>   -15.1578     1.5820     2.0279 </r>
       <r>   -15.0817     0.9492     2.1002 </r>
       <r>   -15.0056     0.8887     2.1678 </r>
       <r>   -14.9295     1.5463     2.2855 </r>
       <r>   -14.8534     2.0657     2.4428 </r>
       <r>   -14.7772     1.0854     2.5254 </r>
       <r>   -14.7011     2.4579     2.7125 </r>
       <r>   -14.6250     1.0538     2.7927 </r>
       <r>   -14.5489     0.8407     2.8567 </r>
       <r>   -14.4727     0.9630     2.9300 </r>
       <r>   -14.3966     2.0132     3.0833 </r>
       <r>   -14.3205     1.1472     3.1706 </r>
       <r>   -14.2444     0.9949     3.2463 </r>
       <r>   -14.1683     1.8415     3.3865 </r>
       <r>   -14.0921     0.9252     3.4569 </r>
       <r>   -14.0160     0.6718     3.5081 </r>
       <r>   -13.9399     2.6705     3.7114 </r>
       <r>   -13.8638     0.4551     3.7460 </r>
       <r>   -13.7877     0.4369     3.7793 </r>
       <r>   -13.7115     0.5398     3.8203 </r>
       <r>   -13.6354     0.4618     3.8555 </r>
       <r>   -13.5593     0.6022     3.9013 </r>
       <r>   -13.4832     0.7242     3.9565 </r>
       <r>   -13.4070     0.0943     3.9636 </r>
       <r>   -13.3309     0.1686     3.9765 </r>
       <r>   -13.2548     0.1499     3.9879 </r>
       <r>   -13.1787     0.1505     3.9993 </r>
       <r>   -13.1026     0.0087     4.0000 </r>
       <r>   -13.0264     0.0337     4.0026 </r>
       <r>   -12.9503     0.1256     4.0121 </r>
       <r>   -12.8742     0.2413     4.0305 </r>
       <r>   -12.7981     0.0858     4.0370 </r>
       <r>   -12.7220     0.4604     4.0721 </r>
       <r>   -12.6458     0.6346     4.1204 </r>
       <r>   -12.5697     0.2091     4.1363 </r>
       <r>   -12.4936     0.6118     4.1829 </r>
       <r>   -12.4175     0.4056     4.2137 </r>
       <r>   -12.3413     0.5585     4.2562 </r>
       <r>   -12.2652     1.6419     4.3812 </r>
       <r>   -12.1891     1.4480     4.4915 </r>
       <r>   -12.1130     0.8887     4.5591 </r>
       <r>   -12.0369     1.2028     4.6507 </r>
       <r>   -11.9607     1.0913     4.7337 </r>
       <r>   -11.8846     1.4194     4.8418 </r>
       <r>   -11.8085     1.2450     4.9366 </r>
       <r>   -11.7324     1.3494     5.0393 </r>
       <r>   -11.6563     1.6373     5.1639 </r>
       <r>   -11.5801     2.4019     5.3467 </r>
       <r>   -11.5040     2.6253     5.5466 </r>
       <r>   -11.4279     2.0321     5.7013 </r>
       <r>   -11.3518     1.1450     5.7884 </r>
       <r>   -11.2757     1.3823     5.8936 </r>
       <r>   -11.1995     1.5494     6.0116 </r>
       <r>   -11.1234     0.8612     6.0771 </r>
       <r>   -11.0473     1.2296     6.1707 </r>
       <r>   -10.9712     0.8529     6.2357 </r>
       <r>   -10.8950     0.5077     6.2743 </r>
       <r>   -10.8189     1.1880     6.3648 </r>
       <r>   -10.7428     1.2561     6.4604 </r>
       <r>   -10.6667     0.7966     6.5210 </r>
       <r>   -10.5906     0.4516     6.5554 </r>
       <r>   -10.5144     0.9207     6.6255 </r>
       <r>   -10.4383     1.3277     6.7265 </r>
       <r>   -10.3622     0.4077     6.7576 </r>
       <r>   -10.2861     0.0532     6.7616 </r>
       <r>   -10.2100     0.8902     6.8294 </r>
       <r>   -10.1338     0.7468     6.8862 </r>
       <r>   -10.0577     1.2806     6.9837 </r>
       <r>    -9.9816     0.5522     7.0257 </r>
       <r>    -9.9055     0.3979     7.0560 </r>
       <r>    -9.8293     0.2193     7.0727 </r>
       <r>    -9.7532     0.4741     7.1088 </r>
       <r>    -9.6771     1.4228     7.2171 </r>
       <r>    -9.6010     0.1743     7.2304 </r>
       <r>    -9.5249     0.5311     7.2708 </r>
       <r>    -9.4487     0.1057     7.2789 </r>
       <r>    -9.3726     0.4107     7.3101 </r>
       <r>    -9.2965     1.2070     7.4020 </r>
       <r>    -9.2204     0.9239     7.4723 </r>
       <r>    -9.1443     0.0051     7.4727 </r>
       <r>    -9.0681     0.0000     7.4727 </r>
       <r>    -8.9920     0.0995     7.4803 </r>
       <r>    -8.9159     0.7621     7.5383 </r>
       <r>    -8.8398     1.0652     7.6194 </r>
       <r>    -8.7636     0.4602     7.6544 </r>
       <r>    -8.6875     0.1604     7.6666 </r>
       <r>    -8.6114     0.0334     7.6692 </r>
       <r>    -8.5353     0.2863     7.6910 </r>
       <r>    -8.4592     0.6227     7.7384 </r>
       <r>    -8.3830     0.8089     7.8000 </r>
       <r>    -8.3069     0.0153     7.8011 </r>
       <r>    -8.2308     0.3070     7.8245 </r>
       <r>    -8.1547     1.0095     7.9013 </r>
       <r>    -8.0786     2.2823     8.0751 </r>
       <r>    -8.0024     2.5563     8.2697 </r>
       <r>    -7.9263     2.0395     8.4249 </r>
       <r>    -7.8502     2.1146     8.5859 </r>
       <r>    -7.7741     1.9785     8.7365 </r>
       <r>    -7.6979     2.4725     8.9247 </r>
       <r>    -7.6218     2.3107     9.1006 </r>
       <r>    -7.5457     1.3445     9.2029 </r>
       <r>    -7.4696     1.4504     9.3133 </r>
       <r>    -7.3935     2.4512     9.4999 </r>
       <r>    -7.3173     3.4655     9.7637 </r>
       <r>    -7.2412     3.7711    10.0508 </r>
       <r>    -7.1651     3.7987    10.3400 </r>
       <r>    -7.0890     3.1000    10.5759 </r>
       <r>    -7.0129     1.3843    10.6813 </r>
       <r>    -6.9367     0.6832    10.7333 </r>
       <r>    -6.8606     0.6995    10.7866 </r>
       <r>    -6.7845     1.6168    10.9096 </r>
       <r>    -6.7084     1.5489    11.0275 </r>
       <r>    -6.6322     2.0186    11.1812 </r>
       <r>    -6.5561     1.8599    11.3228 </r>
       <r>    -6.4800     1.5168    11.4382 </r>
       <r>    -6.4039     1.2614    11.5343 </r>
       <r>    -6.3278     1.3106    11.6340 </r>
       <r>    -6.2516     1.8824    11.7773 </r>
       <r>    -6.1755     1.7304    11.9090 </r>
       <r>    -6.0994     1.6790    12.0368 </r>
       <r>    -6.0233     1.5977    12.1584 </r>
       <r>    -5.9472     2.5378    12.3516 </r>
       <r>    -5.8710     1.5015    12.4659 </r>
       <r>    -5.7949     1.5576    12.5845 </r>
       <r>    -5.7188     2.5694    12.7801 </r>
       <r>    -5.6427     4.3094    13.1081 </r>
       <r>    -5.5666     4.1536    13.4243 </r>
       <r>    -5.4904     4.2869    13.7506 </r>
       <r>    -5.4143     3.2482    13.9979 </r>
       <r>    -5.3382     2.8605    14.2156 </r>
       <r>    -5.2621     3.5281    14.4842 </r>
       <r>    -5.1859     3.6210    14.7598 </r>
       <r>    -5.1098     2.2081    14.9279 </r>
       <r>    -5.0337     1.6050    15.0501 </r>
       <r>    -4.9576     2.8429    15.2665 </r>
       <r>    -4.8815     0.8290    15.3296 </r>
       <r>    -4.8053     1.6557    15.4556 </r>
       <r>    -4.7292     0.9028    15.5243 </r>
       <r>    -4.6531     1.0350    15.6031 </r>
       <r>    -4.5770     2.2147    15.7717 </r>
       <r>    -4.5009     1.1120    15.8564 </r>
       <r>    -4.4247     0.3100    15.8800 </r>
       <r>    -4.3486     0.9378    15.9513 </r>
       <r>    -4.2725     1.4595    16.0624 </r>
       <r>    -4.1964     2.4000    16.2451 </r>
       <r>    -4.1202     3.0088    16.4742 </r>
       <r>    -4.0441     1.9443    16.6222 </r>
       <r>    -3.9680     3.0897    16.8574 </r>
       <r>    -3.8919     2.7667    17.0680 </r>
       <r>    -3.8158     3.9553    17.3691 </r>
       <r>    -3.7396     5.1368    17.7601 </r>
       <r>    -3.6635     2.9483    17.9845 </r>
       <r>    -3.5874     3.3104    18.2365 </r>
       <r>    -3.5113     2.0359    18.3915 </r>
       <r>    -3.4352     3.8797    18.6868 </r>
       <r>    -3.3590     4.9735    19.0654 </r>
       <r>    -3.2829     3.0920    19.3008 </r>
       <r>    -3.2068     1.1221    19.3862 </r>
       <r>    -3.1307     0.8072    19.4476 </r>
       <r>    -3.0545     1.8104    19.5854 </r>
       <r>    -2.9784     0.5369    19.6263 </r>
       <r>    -2.9023     1.7794    19.7618 </r>
       <r>    -2.8262     0.4955    19.7995 </r>
       <r>    -2.7501     0.0981    19.8070 </r>
       <r>    -2.6739     0.2331    19.8247 </r>
       <r>    -2.5978     0.4700    19.8605 </r>
       <r>    -2.5217     1.0553    19.9408 </r>
       <r>    -2.4456     0.2220    19.9577 </r>
       <r>    -2.3695     0.2364    19.9757 </r>
       <r>    -2.2933     0.3194    20.0000 </r>
       <r>    -2.2172     0.0000    20.0000 </r>
       <r>    -2.1411     0.0000    20.0000 </r>
       <r>    -2.0650     0.0000    20.0000 </r>
       <r>    -1.9888     0.0000    20.0000 </r>
       <r>    -1.9127     0.0000    20.0000 </r>
       <r>    -1.8366     0.0000    20.0000 </r>
       <r>    -1.7605     0.0000    20.0000 </r>
       <r>    -1.6844     0.0000    20.0000 </r>
       <r>    -1.6082     0.0000    20.0000 </r>
       <r>    -1.5321     0.0000    20.0000 </r>
       <r>    -1.4560     0.0000    20.0000 </r>
       <r>    -1.3799     0.0636    20.0048 </r>
       <r>    -1.3038     0.2114    20.0209 </r>
       <r>    -1.2276     0.1308    20.0309 </r>
       <r>    -1.1515     1.2323    20.1247 </r>
       <r>    -1.0754     1.6930    20.2536 </r>
       <r>    -0.9993     2.1817    20.4196 </r>
       <r>    -0.9231     1.5410    20.5369 </r>
       <r>    -0.8470     1.6112    20.6596 </r>
       <r>    -0.7709     2.0095    20.8126 </r>
       <r>    -0.6948     1.9192    20.9586 </r>
       <r>    -0.6187     2.2625    21.1309 </r>
       <r>    -0.5425     2.1251    21.2926 </r>
       <r>    -0.4664     2.0728    21.4504 </r>
       <r>    -0.3903     3.0259    21.6808 </r>
       <r>    -0.3142     2.4501    21.8673 </r>
       <r>    -0.2381     3.0413    22.0988 </r>
       <r>    -0.1619     2.7555    22.3085 </r>
       <r>    -0.0858     2.3740    22.4892 </r>
       <r>    -0.0097     2.8100    22.7031 </r>
       <r>     0.0664     2.8106    22.9171 </r>
       <r>     0.1426     4.3599    23.2490 </r>
       <r>     0.2187     4.1049    23.5614 </r>
       <r>     0.2948     1.8564    23.7028 </r>
       <r>     0.3709     5.5801    24.1275 </r>
       <r>     0.4470     5.3671    24.5361 </r>
       <r>     0.5232     4.3083    24.8640 </r>
       <r>     0.5993     5.0550    25.2488 </r>
       <r>     0.6754     1.8583    25.3903 </r>
       <r>     0.7515     2.5402    25.5836 </r>
       <r>     0.8276     5.4557    25.9989 </r>
       <r>     0.9038     3.3410    26.2533 </r>
       <r>     0.9799     1.6284    26.3772 </r>
       <r>     1.0560     2.4985    26.5674 </r>
       <r>     1.1321     4.6322    26.9200 </r>
       <r>     1.2082     2.8146    27.1343 </r>
       <r>     1.2844     1.8918    27.2783 </r>
       <r>     1.3605     1.4922    27.3919 </r>
       <r>     1.4366     1.9634    27.5413 </r>
       <r>     1.5127     3.2102    27.7857 </r>
       <r>     1.5889     1.4363    27.8950 </r>
       <r>     1.6650     2.3288    28.0723 </r>
       <r>     1.7411     1.8139    28.2104 </r>
       <r>     1.8172     3.8059    28.5001 </r>
       <r>     1.8933     1.7365    28.6323 </r>
       <r>     1.9695     1.8694    28.7746 </r>
       <r>     2.0456     2.4987    28.9648 </r>
       <r>     2.1217     2.3173    29.1412 </r>
       <r>     2.1978     2.4081    29.3245 </r>
       <r>     2.2739     2.4288    29.5093 </r>
       <r>     2.3501     3.2309    29.7553 </r>
       <r>     2.4262     2.6511    29.9571 </r>
       <r>     2.5023     2.0739    30.1150 </r>
       <r>     2.5784     4.0888    30.4262 </r>
       <r>     2.6546     3.2568    30.6741 </r>
       <r>     2.7307     2.3266    30.8512 </r>
       <r>     2.8068     1.9528    30.9999 </r>
       <r>     2.8829     1.9105    31.1453 </r>
       <r>     2.9590     2.6290    31.3454 </r>
       <r>     3.0352     1.0658    31.4266 </r>
       <r>     3.1113     1.5429    31.5440 </r>
       <r>     3.1874     1.7178    31.6748 </r>
       <r>     3.2635     1.7275    31.8063 </r>
       <r>     3.3396     1.3034    31.9055 </r>
       <r>     3.4158     0.8209    31.9680 </r>
       <r>     3.4919     0.1103    31.9764 </r>
       <r>     3.5680     0.3104    32.0000 </r>
       <r>     3.6441     0.0001    32.0000 </r>
       <r>     3.7203     0.0000    32.0000 </r>
       <r>     3.7964     0.0000    32.0000 </r>
       <r>     3.8725     0.0000    32.0000 </r>
       <r>     3.9486     0.0000    32.0000 </r>
       <r>     4.0247     0.0000    32.0000 </r>
       <r>     4.1009     0.0000    32.0000 </r>
       <r>     4.1770     0.0000    32.0000 </r>
       <r>     4.2531     0.0000    32.0000 </r>
       <r>     4.3292     0.0000    32.0000 </r>
       <r>     4.4053     0.0000    32.0000 </r>
       <r>     4.4815     0.0000    32.0000 </r>
       <r>     4.5576     0.0000    32.0000 </r>
      </set>
     </set>
    </array>
   </total>
  </dos>
 </calculation>
 <structure name="finalpos" >
  <crystal>
   <varray name="basis" >
    <v>       3.29720400       0.00000000       0.00000000 </v>
    <v>       0.00000000       4.69218900      -0.00005300 </v>
    <v>       0.00000000       0.00000000      20.02439000 </v>
   </varray>
   <i name="volume">    309.79942703 </i>
   <varray name="rec_basis" >
    <v>       0.30328727       0.00000000       0.00000000 </v>
    <v>       0.00000000       0.21312014       0.00000000 </v>
    <v>       0.00000000       0.00000056       0.04993910 </v>
   </varray>
  </crystal>
  <varray name="positions" >
   <v>       0.50000000       0.90857077       0.55226577 </v>
   <v>       0.50000000       0.09142923       0.44773423 </v>
   <v>      -0.00000000       0.40856618       0.44773423 </v>
   <v>       0.00000000       0.59143382       0.55226577 </v>
  </varray>
 </structure>
</modeling>
